                         Program Version 4.0.1.2 - RELEASE -
|  1> ! UKS B3LYP def2-TZVP OPT FREQ
|  2>
|  3> *xyz 0 1
|  4> B 1.071889    0.062577   -0.030280
|  5> F 0.414037   -0.964720   -0.523178
|  6> F 0.414033    1.089875    0.462619
|  7> F 2.387580    0.062579   -0.030281
|  8> *
|  9>
| 10>
| 11>                          ****END OF INPUT****
 Total Charge           Charge          ....    0
 Multiplicity           Mult            ....    1
 Number of Electrons    NEL             ....   32
FINAL SINGLE POINT ENERGY      -324.592864485697
FINAL SINGLE POINT ENERGY      -324.592865200687
                    ***********************HURRAY********************

CARTESIAN COORDINATES (ANGSTROEM)
---------------------------------
  B      1.071802    0.062578   -0.030280
  F      0.413877   -0.965233   -0.523424
  F      0.413874    1.090386    0.462864
  F      2.387986    0.062580   -0.030281

 Multiplicity           Mult            ....    1
 Number of Electrons    NEL             ....   32
 Basis Dimension        Dim             ....  124

ORBITAL ENERGIES
----------------
                 SPIN UP ORBITALS
  NO   OCC          E(Eh)            E(eV)
   0   1.0000     -24.720482      -672.6785
   1   1.0000     -24.720468      -672.6781
   2   1.0000     -24.720464      -672.6780
   3   1.0000      -6.913443      -188.1244
   4   1.0000      -1.276988       -34.7486
   5   1.0000      -1.238959       -33.7138
   6   1.0000      -1.238920       -33.7127
   7   1.0000      -0.614175       -16.7125
   8   1.0000      -0.577329       -15.7099
   9   1.0000      -0.577277       -15.7085
  10   1.0000      -0.538518       -14.6538
  11   1.0000      -0.473973       -12.8975
  12   1.0000      -0.473945       -12.8967
  13   1.0000      -0.465488       -12.6666
  14   1.0000      -0.465425       -12.6649
  15   1.0000      -0.433840       -11.8054
  16   0.0000       0.003832         0.1043
  17   0.0000       0.015855         0.4314
  18   0.0000       0.099252         2.7008
  19   0.0000       0.099397         2.7047
  20   0.0000       0.119361         3.2480

                 SPIN DOWN ORBITALS
  NO   OCC          E(Eh)            E(eV)
   0   1.0000     -24.720482      -672.6785
   1   1.0000     -24.720468      -672.6781
   2   1.0000     -24.720464      -672.6780
   3   1.0000      -6.913443      -188.1244
   4   1.0000      -1.276988       -34.7486
   5   1.0000      -1.238959       -33.7138
   6   1.0000      -1.238920       -33.7127
   7   1.0000      -0.614175       -16.7125
   8   1.0000      -0.577329       -15.7099
   9   1.0000      -0.577277       -15.7085
  10   1.0000      -0.538518       -14.6538
  11   1.0000      -0.473973       -12.8975
  12   1.0000      -0.473945       -12.8967
  13   1.0000      -0.465488       -12.6666
  14   1.0000      -0.465425       -12.6649
  15   1.0000      -0.433840       -11.8054
  16   0.0000       0.003832         0.1043
  17   0.0000       0.015855         0.4314
  18   0.0000       0.099252         2.7008
  19   0.0000       0.099397         2.7047
  20   0.0000       0.119361         3.2480

MULLIKEN ATOMIC CHARGES AND SPIN POPULATIONS
--------------------------------------------
   0 B :    0.658916    0.000000
   1 F :   -0.219633    0.000000
   2 F :   -0.219633    0.000000
   3 F :   -0.219650    0.000000
Sum of atomic charges         :   -0.0000000

LOEWDIN ATOMIC CHARGES AND SPIN POPULATIONS
-------------------------------------------
   0 B :   -1.063425    0.000000
   1 F :    0.354454    0.000000
   2 F :    0.354454    0.000000
   3 F :    0.354517    0.000000

  Mayer bond orders larger than 0.1
B(  0-B ,  1-F ) :   1.2304 B(  0-B ,  2-F ) :   1.2304 B(  0-B ,  3-F ) :   1.2309

FINAL SINGLE POINT ENERGY      -324.592865264807

DIPOLE MOMENT
-------------
                                X             Y             Z
Electronic contribution:     -0.00039      -0.00000      -0.00000
Nuclear contribution   :      0.00002       0.00000       0.00000
                        -----------------------------------------
Total Dipole Moment    :     -0.00036      -0.00000      -0.00000
                        -----------------------------------------
Magnitude (a.u.)       :      0.00036
Magnitude (Debye)      :      0.00093

VIBRATIONAL FREQUENCIES
-----------------------

   0:         0.00 cm**-1
   1:         0.00 cm**-1
   2:         0.00 cm**-1
   3:         0.00 cm**-1
   4:         0.00 cm**-1
   5:         0.00 cm**-1
   6:       471.07 cm**-1
   7:       471.25 cm**-1
   8:       686.35 cm**-1
   9:       883.15 cm**-1
  10:      1457.63 cm**-1
  11:      1457.99 cm**-1

IR SPECTRUM
-----------

 Mode    freq (cm**-1)   T**2         TX         TY         TZ
-------------------------------------------------------------------
   6:       471.07   12.383418  ( -3.519008   0.001180   0.000589)
   7:       471.25   12.372198  ( -0.001319  -3.151386  -1.562358)
   8:       686.35   97.470145  ( -0.000010   4.288517  -8.892624)
   9:       883.15    0.000000  (  0.000424  -0.000014  -0.000007)
  10:      1457.63  440.077149  ( 20.977982  -0.034112  -0.016393)
  11:      1457.99  440.042893  ( -0.037851 -18.912288  -9.075616)

--------------------------
THERMOCHEMISTRY AT 298.15K
--------------------------

Temperature         ... 298.15 K
Pressure            ... 1.00 atm
Total Mass          ... 67.80 AMU

Throughout the following assumptions are being made:
  (1) The electronic state is orbitally nondegenerate
  (2) There are no thermally accessible electronically excited states
  (3) Hindered rotations indicated by low frequency modes are not
      treated as such but are treated as vibrations and this may
      cause some error
  (4) All equations used are the standard statistical mechanics
      equations for an ideal gas
  (5) All vibrations are strictly harmonic

freq.     471.07  E(vib)   ...       0.15
freq.     471.25  E(vib)   ...       0.15
freq.     686.35  E(vib)   ...       0.07
freq.     883.15  E(vib)   ...       0.04
freq.    1457.63  E(vib)   ...       0.00
freq.    1457.99  E(vib)   ...       0.00

------------
INNER ENERGY
------------

The inner energy is: U= E(el) + E(ZPE) + E(vib) + E(rot) + E(trans)
    E(el)   - is the total energy from the electronic structure calculation
              = E(kin-el) + E(nuc-el) + E(el-el) + E(nuc-nuc)
    E(ZPE)  - the the zero temperature vibrational energy from the frequency calculation
    E(vib)  - the the finite temperature correction to E(ZPE) due to population
              of excited vibrational states
    E(rot)  - is the rotational thermal energy
    E(trans)- is the translational thermal energy

Summary of contributions to the inner energy U:
Electronic energy                ...   -324.59286526 Eh
Zero point energy                ...      0.01236463 Eh       7.76 kcal/mol
Thermal vibrational correction   ...      0.00068022 Eh       0.43 kcal/mol
Thermal rotational correction    ...      0.00141627 Eh       0.89 kcal/mol
Thermal translational correction ...      0.00141627 Eh       0.89 kcal/mol
-----------------------------------------------------------------------
Total thermal energy                   -324.57698787 Eh

Summary of corrections to the electronic energy:
(perhaps to be used in another calculation)
Total thermal correction                  0.00351276 Eh       2.20 kcal/mol
Non-thermal (ZPE) correction              0.01236463 Eh       7.76 kcal/mol
-----------------------------------------------------------------------
Total correction                          0.01587739 Eh       9.96 kcal/mol

--------
ENTHALPY
--------

The enthalpy is H = U + kB*T
                kB is Boltzmann's constant
Total free energy                 ...   -324.57698787 Eh
Thermal Enthalpy correction       ...      0.00094421 Eh       0.59 kcal/mol
-----------------------------------------------------------------------
Total Enthalpy                    ...   -324.57604366 Eh

Vibrational entropy computed according to the QRRHO of S. Grimme
Chem.Eur.J. 2012 18 9955

-------
ENTROPY
-------

The entropy contributions are T*S = T*(S(el)+S(vib)+S(rot)+S(trans)
     S(el)   - electronic entropy
     S(vib)  - vibrational entropy
     S(rot)  - rotational entropy
     S(trans)- translational entropy
The entropies will be listed as mutliplied by the temperature to get
units of energy

Electronic entropy                ...      0.00000000 Eh      0.00 kcal/mol
Vibrational entropy               ...      0.00093675 Eh      0.59 kcal/mol
Rotational entropy                ...      0.01032255 Eh      6.48 kcal/mol
Translational entropy             ...      0.01832095 Eh     11.50 kcal/mol
-----------------------------------------------------------------------
Final entropy term                ...      0.02958025 Eh     18.56 kcal/mol

CAUTION: The rotational entropy is not quite correctly treated here
         because it includes a symmetry number that is not yet correctly
         implemented in ORCA!
For a nonlinear molecule the correct rotational entropy is:
    S(rot) = R*(ln(qrot/sn)+1.5)
    R    = 8.31441 J/mol/K = 1.987191683e-3 kcal/mol/K
    qrot = 37474.6209222
    sn is the rotational symmetry number. We have assumed 3 here
       if it is different for your molecule then you should correct
       the printed rotational entropy by manually evaluating the equation
       as given above

For convenience we print out the resulting values for sn=1 - 12:
 sn= 1  qrot/sn=   37474.6209 T*S(rot)=     7.13 kcal/mol T*S(tot)=    19.21 kcal/mol
 sn= 2  qrot/sn=   18737.3105 T*S(rot)=     6.72 kcal/mol T*S(tot)=    18.80 kcal/mol
 sn= 3  qrot/sn=   12491.5403 T*S(rot)=     6.48 kcal/mol T*S(tot)=    18.56 kcal/mol
 sn= 4  qrot/sn=    9368.6552 T*S(rot)=     6.31 kcal/mol T*S(tot)=    18.39 kcal/mol
 sn= 5  qrot/sn=    7494.9242 T*S(rot)=     6.17 kcal/mol T*S(tot)=    18.26 kcal/mol
 sn= 6  qrot/sn=    6245.7702 T*S(rot)=     6.07 kcal/mol T*S(tot)=    18.15 kcal/mol
 sn= 7  qrot/sn=    5353.5173 T*S(rot)=     5.98 kcal/mol T*S(tot)=    18.06 kcal/mol
 sn= 8  qrot/sn=    4684.3276 T*S(rot)=     5.90 kcal/mol T*S(tot)=    17.98 kcal/mol
 sn= 9  qrot/sn=    4163.8468 T*S(rot)=     5.83 kcal/mol T*S(tot)=    17.91 kcal/mol
 sn=10  qrot/sn=    3747.4621 T*S(rot)=     5.76 kcal/mol T*S(tot)=    17.85 kcal/mol
 sn=11  qrot/sn=    3406.7837 T*S(rot)=     5.71 kcal/mol T*S(tot)=    17.79 kcal/mol
 sn=12  qrot/sn=    3122.8851 T*S(rot)=     5.66 kcal/mol T*S(tot)=    17.74 kcal/mol

-------------------
GIBBS FREE ENTHALPY
-------------------

The Gibbs free enthalpy is G = H - T*S

Total enthalpy                    ...   -324.57604366 Eh
Total entropy correction          ...     -0.02958025 Eh    -18.56 kcal/mol
-----------------------------------------------------------------------
Final Gibbs free enthalpy         ...   -324.60562391 Eh

For completeness - the Gibbs free enthalpy minus the electronic energy
G-E(el)                           ...     -0.01275865 Eh     -8.01 kcal/mol

                             ****ORCA TERMINATED NORMALLY****
TOTAL RUN TIME: 0 days 0 hours 4 minutes 18 seconds 471 msec
