 Gaussian 16, Revision A.03,
 Gaussian 16:  ES64L-G16RevA.03 25-Dec-2016

 ----------------------------------------------------------------------
 # sp uccsd(t)/Def2TZVP nosymm scf=(qc,maxcycle=3000) geom=connectivity
 ----------------------------------------------------------------------

 ------------------------------------------------------------------
 Autogenerated with dbale for SMILES B(F)(F)F_uccsd(t)_Def2TZVP.com
 ------------------------------------------------------------------
 Symbolic Z-matrix:
 Charge =  0 Multiplicity = 1

                          Input orientation:
 ---------------------------------------------------------------------
 Center     Atomic      Atomic             Coordinates (Angstroms)
 Number     Number       Type             X           Y           Z
 ---------------------------------------------------------------------
      1          5           0        1.071890    0.062580   -0.030280
      2          9           0        0.414040   -0.964720   -0.523180
      3          9           0        0.414030    1.089870    0.462620
      4          9           0        2.387580    0.062580   -0.030280
 ---------------------------------------------------------------------

 SCF Done:  E(UHF) =  -323.343448169     a.u. after    7 cycles
 E2 =    -0.8340159268D+00 EUMP2 =    -0.32417746409611D+03
 CCSD(T)= -0.32420293396D+03

 Alpha  occ. eigenvalues --  -26.33863 -26.33863 -26.33861  -7.78203  -1.68437
 Alpha  occ. eigenvalues --   -1.64208  -1.64207  -0.85748  -0.81156  -0.81156
 Alpha  occ. eigenvalues --   -0.76193  -0.70000  -0.70000  -0.68699  -0.68699
 Alpha  occ. eigenvalues --   -0.66323
 Alpha virt. eigenvalues --    0.10097   0.13794   0.18446   0.18446   0.25357
 Alpha virt. eigenvalues --    0.38659   0.54730   0.54730   0.56371   0.65206
 Alpha virt. eigenvalues --    0.65207   0.65713   0.65713   0.74412   0.76646

  Beta  occ. eigenvalues --  -26.33863 -26.33863 -26.33861  -7.78203  -1.68437
  Beta  occ. eigenvalues --   -1.64208  -1.64207  -0.85748  -0.81156  -0.81156
  Beta  occ. eigenvalues --   -0.76193  -0.70000  -0.70000  -0.68699  -0.68699
  Beta  occ. eigenvalues --   -0.66323
  Beta virt. eigenvalues --    0.10097   0.13794   0.18446   0.18446   0.25357
  Beta virt. eigenvalues --    0.38659   0.54730   0.54730   0.56371   0.65206
  Beta virt. eigenvalues --    0.65207   0.65713   0.65713   0.74412   0.76646

 Mulliken charges and spin densities:
               1          2
     1  B    0.925713   0.000000
     2  F   -0.308574   0.000000
     3  F   -0.308572   0.000000
     4  F   -0.308567   0.000000
 Sum of Mulliken charges =   0.00000   0.00000

 Dipole moment (field-independent basis, Debye):
    X=              0.0001    Y=              0.0000    Z=              0.0000  Tot=              0.0001
 Quadrupole moment (field-independent basis, Debye-Ang):
   XX=            -22.1328   YY=            -21.2569   ZZ=            -18.3276
   XY=              0.0000   XZ=              0.0000   YZ=             -1.8258

 324.1720497\MP4SDQ=-324.1816864\CCSD=-324.17922\CCSD(T)=-324.202934\S2
 Normal termination of Gaussian 16 at Tue Mar 17 20:06:22 2020.
