 Gaussian 16, Revision A.03,
 Gaussian 16:  ES64L-G16RevA.03 25-Dec-2016

 ----------------------------------------------------------------------
 # opt=(calcfc,maxcycles=200) freq ub3lyp/Def2TZVP nosymm scf=(qc,maxcy
 cle=3000) geom=connectivity
 ----------------------------------------------------------------------

 --------------------------------------------------------------
 Autogenerated with dbale for SMILES [B](F)(F)F_ub3lyp_Def2TZVP
 --------------------------------------------------------------
 Symbolic Z-matrix:
 Charge =  0 Multiplicity = 1

 SCF Done:  E(UB3LYP) =  -324.675431529     a.u. after    6 cycles
 SCF Done:  E(UB3LYP) =  -324.710361908     a.u. after   14 cycles
 SCF Done:  E(UB3LYP) =  -324.714174666     a.u. after   10 cycles
 SCF Done:  E(UB3LYP) =  -324.714176033     a.u. after    2 cycles
 Optimization completed.
    -- Stationary point found.
 Normal termination of Gaussian 16 at Tue Mar 17 17:52:06 2020.

 --------------------------------------------------------------------
 #N Geom=AllCheck Guess=TCheck SCRF=Check GenChk UB3LYP/def2TZVP Freq
 --------------------------------------------------------------------

 Structure from the checkpoint file:  "/rc_scratch/jasm3285/Gau-170913.chk"
 --------------------------------------------------------------
 Autogenerated with dbale for SMILES [B](F)(F)F_ub3lyp_Def2TZVP
 --------------------------------------------------------------
 Charge =  0 Multiplicity = 1

                          Input orientation:
 ---------------------------------------------------------------------
 Center     Atomic      Atomic             Coordinates (Angstroms)
 Number     Number       Type             X           Y           Z
 ---------------------------------------------------------------------
      1          5           0        1.071889    0.062577   -0.030280
      2          9           0        0.414037   -0.964720   -0.523178
      3          9           0        0.414033    1.089875    0.462619
      4          9           0        2.387580    0.062579   -0.030281
 ---------------------------------------------------------------------

 SCF Done:  E(UB3LYP) =  -324.714176033     a.u. after    1 cycles

 Alpha  occ. eigenvalues --  -24.72401 -24.72401 -24.72400  -6.91708  -1.28068
 Alpha  occ. eigenvalues --   -1.24257  -1.24257  -0.61773  -0.58093  -0.58093
 Alpha  occ. eigenvalues --   -0.54213  -0.47751  -0.47751  -0.46899  -0.46899
 Alpha  occ. eigenvalues --   -0.43736
 Alpha virt. eigenvalues --    0.00119   0.01291   0.09679   0.09679   0.11683
 Alpha virt. eigenvalues --    0.22399   0.35931   0.35932   0.41504   0.45519
 Alpha virt. eigenvalues --    0.45519   0.48449   0.48449   0.56967   0.59038

  Beta  occ. eigenvalues --  -24.72401 -24.72401 -24.72400  -6.91708  -1.28068
  Beta  occ. eigenvalues --   -1.24257  -1.24257  -0.61773  -0.58093  -0.58093
  Beta  occ. eigenvalues --   -0.54213  -0.47751  -0.47751  -0.46899  -0.46899
  Beta  occ. eigenvalues --   -0.43736
  Beta virt. eigenvalues --    0.00119   0.01291   0.09679   0.09679   0.11683
  Beta virt. eigenvalues --    0.22399   0.35931   0.35932   0.41504   0.45519
  Beta virt. eigenvalues --    0.45519   0.48449   0.48449   0.56967   0.59038

 Mulliken charges and spin densities:
               1          2
     1  B    0.659583  -0.000000
     2  F   -0.219862   0.000000
     3  F   -0.219866   0.000000
     4  F   -0.219855   0.000000
 Sum of Mulliken charges =  -0.00000  -0.00000

 Dipole moment (field-independent basis, Debye):
    X=              0.0001    Y=             -0.0000    Z=             -0.0000  Tot=              0.0001
 Quadrupole moment (field-independent basis, Debye-Ang):
   XX=            -21.9654   YY=            -21.2115   ZZ=            -18.6900
   XY=             -0.0000   XZ=             -0.0000   YZ=             -1.5716

  Exact polarizability:  15.906  -0.000  15.070  -0.000   1.742  12.276
 Approx polarizability:  19.694  -0.000  18.720  -0.000   2.030  15.463

                      1                      2                      3
                      A                      A                      A
 Frequencies --    471.7894               471.8132               682.2832
 Red. masses --     17.8788                17.8789                11.8135
 Frc consts  --      2.3447                 2.3449                 3.2401
 IR Inten    --     12.5440                12.5407                96.1238

                      4                      5                      6
                      A                      A                      A
 Frequencies --    885.1967              1449.9127              1449.9423
 Red. masses --     18.9984                12.2922                12.2922
 Frc consts  --      8.7710                15.2252                15.2258
 IR Inten    --      0.0000               433.3389               433.3321

 - Thermochemistry -
 -------------------
 Temperature   298.150 Kelvin.  Pressure   1.00000 Atm.
 Atom     1 has atomic number  5 and mass  11.00931

 Molecular mass:    68.00452 amu.
 Principal axes and moments of inertia in atomic units:
                           1         2         3
     Eigenvalues --   176.16367 176.16426 352.32793
           X            0.92987   0.36788   0.00000
           Y           -0.33168   0.83837  -0.43259
           Z           -0.15914   0.40225   0.90159
 This molecule is an asymmetric top.
 Rotational symmetry number  1.
 Rotational temperatures (Kelvin)      0.49167     0.49167     0.24583
 Rotational constants (GHZ):          10.24468    10.24465     5.12233
 Zero-point vibrational energy      32364.6 (Joules/Mol)
                                    7.73532 (Kcal/Mol)
 Warning -- explicit consideration of   2 degrees of freedom as
           vibrations may cause significant error
 Vibrational temperatures:    678.80   678.83   981.65  1273.60  2086.10
          (Kelvin)           2086.14

 Zero-point correction=                           0.012327 (Hartree/Particle)
 Thermal correction to Energy=                    0.015840
 Thermal correction to Enthalpy=                  0.016785
 Thermal correction to Gibbs Free Energy=        -0.013835
 Sum of electronic and zero-point Energies=           -324.701849
 Sum of electronic and thermal Energies=              -324.698336
 Sum of electronic and thermal Enthalpies=            -324.697391
 Sum of electronic and thermal Free Energies=         -324.728011

                     E (Thermal)             CV                S
                      KCal/Mol        Cal/Mol-Kelvin    Cal/Mol-Kelvin
 Total                    9.940             10.149             64.445
 Electronic               0.000              0.000              0.000
 Translational            0.889              2.981             38.569
 Rotational               0.889              2.981             23.907
 Vibrational              8.163              4.188              1.970
 Vibration     1          0.829              1.313              0.733
 Vibration     2          0.829              1.313              0.732

 Optimization completed.
    -- Stationary point found.
 Normal termination of Gaussian 16 at Tue Mar 17 17:52:18 2020.
