 Gaussian 16, Revision A.03,
 Gaussian 16:  ES64L-G16RevA.03 25-Dec-2016

 ----------------------------------------------------------------------
 # opt=(calcfc,maxcycles=200) freq ub3lyp/Def2TZVP nosymm scf=(qc,maxcy
 cle=3000) geom=connectivity
 ----------------------------------------------------------------------

 ----------------------------------------------------------
 Autogenerated with dbale for SMILES [Cu]Cl_ub3lyp_Def2TZVP
 ----------------------------------------------------------
 Symbolic Z-matrix:
 Charge =  0 Multiplicity = 1

 SCF Done:  E(UB3LYP) =  -2100.82928118     a.u. after   10 cycles
 SCF Done:  E(UB3LYP) =  -2100.83490934     a.u. after    9 cycles
 SCF Done:  E(UB3LYP) =  -2100.83501822     a.u. after    4 cycles
 Optimization completed.
    -- Stationary point found.
 Normal termination of Gaussian 16 at Mon Jun  8 12:10:47 2020.

 --------------------------------------------------------------------
 #N Geom=AllCheck Guess=TCheck SCRF=Check GenChk UB3LYP/def2TZVP Freq
 --------------------------------------------------------------------

 Structure from the checkpoint file:  "/rc_scratch/vijo5019/Gau-125159.chk"
 ----------------------------------------------------------
 Autogenerated with dbale for SMILES [Cu]Cl_ub3lyp_Def2TZVP
 ----------------------------------------------------------
 Charge =  0 Multiplicity = 1

                          Input orientation:
 ---------------------------------------------------------------------
 Center     Atomic      Atomic             Coordinates (Angstroms)
 Number     Number       Type             X           Y           Z
 ---------------------------------------------------------------------
      1         29           0        1.155315   -0.083960    0.044360
      2         17           0        3.247365   -0.083960    0.044360
 ---------------------------------------------------------------------

 SCF Done:  E(UB3LYP) =  -2100.83501822     a.u. after    1 cycles

 Alpha  occ. eigenvalues -- -323.03425-101.46853 -38.83020 -34.03479 -34.03466
 Alpha  occ. eigenvalues --  -34.03466  -9.40024  -7.15926  -7.15449  -7.15449
 Alpha  occ. eigenvalues --   -4.32196  -2.81980  -2.81407  -2.81407  -0.75636
 Alpha  occ. eigenvalues --   -0.36017  -0.33012  -0.33012  -0.30743  -0.30743
 Alpha  occ. eigenvalues --   -0.27713  -0.26469  -0.26469
 Alpha virt. eigenvalues --   -0.12125   0.06089   0.06089   0.08337   0.12697
 Alpha virt. eigenvalues --    0.16476   0.16476   0.19670   0.19670   0.25426
 Alpha virt. eigenvalues --    0.38926   0.38926   0.42534   0.49267   0.49267

  Beta  occ. eigenvalues -- -323.03425-101.46853 -38.83020 -34.03479 -34.03466
  Beta  occ. eigenvalues --  -34.03466  -9.40024  -7.15926  -7.15449  -7.15449
  Beta  occ. eigenvalues --   -4.32196  -2.81980  -2.81407  -2.81407  -0.75636
  Beta  occ. eigenvalues --   -0.36017  -0.33012  -0.33012  -0.30743  -0.30743
  Beta  occ. eigenvalues --   -0.27713  -0.26469  -0.26469
  Beta virt. eigenvalues --   -0.12125   0.06089   0.06089   0.08337   0.12697
  Beta virt. eigenvalues --    0.16476   0.16476   0.19670   0.19670   0.25426
  Beta virt. eigenvalues --    0.38926   0.38926   0.42534   0.49267   0.49267

 Mulliken charges and spin densities:
               1          2
     1  Cu   0.441011  -0.000000
     2  Cl  -0.441011  -0.000000
 Sum of Mulliken charges =  -0.00000  -0.00000

 Dipole moment (field-independent basis, Debye):
    X=             -5.0098    Y=             -0.0000    Z=             -0.0000  Tot=              5.0098
 Quadrupole moment (field-independent basis, Debye-Ang):
   XX=            -42.6551   YY=            -25.5806   ZZ=            -25.5806
   XY=              0.4206   XZ=             -0.2222   YZ=             -0.0000

  Exact polarizability:  44.014   0.000  23.784   0.000   0.000  23.784
 Approx polarizability:  69.478  -0.000  33.712  -0.000   0.000  33.712

                      1
                      A
 Frequencies --    387.7361
 Red. masses --     41.5657
 Frc consts  --      3.6818
 IR Inten    --     18.2847

 - Thermochemistry -
 -------------------
 Temperature   298.150 Kelvin.  Pressure   1.00000 Atm.
 Atom     1 has atomic number 29 and mass  62.92960

 Molecular mass:    97.89845 amu.
 Principal axes and moments of inertia in atomic units:
                           1         2         3
     Eigenvalues --     0.00000 351.31933 351.31933
           X            1.00000  -0.00000   0.00000
           Y            0.00000   1.00000   0.00000
           Z            0.00000   0.00000   1.00000
 This molecule is a prolate symmetric top.
 Rotational symmetry number  1.
 Rotational temperature (Kelvin)      0.24654
 Rotational constant (GHZ):           5.137039
 Zero-point vibrational energy       2319.2 (Joules/Mol)
                                    0.55430 (Kcal/Mol)
 Warning -- explicit consideration of   1 degrees of freedom as
           vibrations may cause significant error
 Vibrational temperatures:    557.87
          (Kelvin)

 Zero-point correction=                           0.000883 (Hartree/Particle)
 Thermal correction to Energy=                    0.003565
 Thermal correction to Enthalpy=                  0.004509
 Thermal correction to Gibbs Free Energy=        -0.022457
 Sum of electronic and zero-point Energies=          -2100.834135
 Sum of electronic and thermal Energies=             -2100.831453
 Sum of electronic and thermal Enthalpies=           -2100.830509
 Sum of electronic and thermal Free Energies=        -2100.857475

                     E (Thermal)             CV                S
                      KCal/Mol        Cal/Mol-Kelvin    Cal/Mol-Kelvin
 Total                    2.237              6.464             56.756
 Electronic               0.000              0.000              0.000
 Translational            0.889              2.981             39.655
 Rotational               0.592              1.987             16.092
 Vibrational              0.756              1.496              1.009
 Vibration     1          0.756              1.496              1.009

 Optimization completed.
    -- Stationary point found.
 Normal termination of Gaussian 16 at Mon Jun  8 12:10:56 2020.
