 Gaussian 16, Revision A.03,
 Gaussian 16:  ES64L-G16RevA.03 25-Dec-2016

 -------------------
 #n UCCSD/cc-pVDZ SP
 -------------------

 -------------------
 Title Card Required
 -------------------
 Symbolic Z-matrix:
 Charge =  0 Multiplicity = 1

                         Standard orientation:
 ---------------------------------------------------------------------
 Center     Atomic      Atomic             Coordinates (Angstroms)
 Number     Number       Type             X           Y           Z
 ---------------------------------------------------------------------
      1          6           0        0.000000    0.000000    0.770000
      2          1           0       -0.504395    0.873656    1.126666
      3          1           0        1.008806   -0.000010    1.126666
      4          1           0       -0.504411   -0.873647    1.126666
      5          6           0        0.000000    0.000000   -0.770000
      6          1           0        0.504395    0.873656   -1.126666
      7          1           0        0.504411   -0.873647   -1.126666
      8          1           0       -1.008806   -0.000010   -1.126666
 ---------------------------------------------------------------------

 SCF Done:  E(UHF) =  -79.2320219038     A.U. after    9 cycles
 E2 =    -0.3006044733D+00 EUMP2 =    -0.79532626377188D+02

 The electronic state is 1-A1.
 Alpha  occ. eigenvalues --  -11.21026 -11.20969  -1.02150  -0.84613  -0.60362
 Alpha  occ. eigenvalues --   -0.60362  -0.49478  -0.49368  -0.49368
 Alpha virt. eigenvalues --    0.18791   0.24121   0.25900   0.25900   0.28664
 Alpha virt. eigenvalues --    0.28664   0.39182   0.60318   0.60318   0.60704
 Alpha virt. eigenvalues --    0.67704   0.67704   0.84135   0.90264   0.90264

  Beta  occ. eigenvalues --  -11.21026 -11.20969  -1.02150  -0.84613  -0.60362
  Beta  occ. eigenvalues --   -0.60362  -0.49478  -0.49368  -0.49368
  Beta virt. eigenvalues --    0.18791   0.24121   0.25900   0.25900   0.28664
  Beta virt. eigenvalues --    0.28664   0.39182   0.60318   0.60318   0.60704
  Beta virt. eigenvalues --    0.67704   0.67704   0.84135   0.90264   0.90264

 Mulliken charges and spin densities:
               1          2
     1  C   -0.073598  -0.000000
     2  H    0.024533  -0.000000
     3  H    0.024533  -0.000000
     4  H    0.024533  -0.000000
     5  C   -0.073598  -0.000000
     6  H    0.024533  -0.000000
     7  H    0.024533  -0.000000
     8  H    0.024533  -0.000000
 Sum of Mulliken charges =  -0.00000  -0.00000

 Dipole moment (field-independent basis, Debye):
    X=              0.0000    Y=              0.0000    Z=             -0.0000  Tot=              0.0000
 Quadrupole moment (field-independent basis, Debye-Ang):
   XX=            -14.7016   YY=            -14.7016   ZZ=            -15.7875
   XY=              0.0000   XZ=              0.0000   YZ=             -0.0000

 Normal termination of Gaussian 16 at Wed Jul  7 12:13:43 2021.
