 Gaussian 16, Revision A.03,
 Gaussian 16:  ES64L-G16RevA.03 25-Dec-2016

 -------------------------------------------
 # opt freq ub3lyp/cc-pvqz geom=connectivity
 -------------------------------------------

 -------------------
 Title Card Required
 -------------------
 Symbolic Z-matrix:
 Charge =  0 Multiplicity = 2

 SCF Done:  E(UB3LYP) =  -75.7721374265     A.U. after   10 cycles
 SCF Done:  E(UB3LYP) =  -75.7723044269     A.U. after    8 cycles
 SCF Done:  E(UB3LYP) =  -75.7723052661     A.U. after    6 cycles
 Optimization completed.
    -- Stationary point found.
 Normal termination of Gaussian 16 at Tue Jul  7 20:12:13 2020.

 -------------------------------------------------------------------
 #N Geom=AllCheck Guess=TCheck SCRF=Check GenChk UB3LYP/CC-pVQZ Freq
 -------------------------------------------------------------------

 Structure from the checkpoint file:  "/rc_scratch/jasm3285/Gau-63477.chk"
 -------------------
 Title Card Required
 -------------------
 Charge =  0 Multiplicity = 2

                         Standard orientation:
 ---------------------------------------------------------------------
 Center     Atomic      Atomic             Coordinates (Angstroms)
 Number     Number       Type             X           Y           Z
 ---------------------------------------------------------------------
      1          8           0        0.000000    0.000000    0.108179
      2          1           0        0.000000    0.000000   -0.865434
 ---------------------------------------------------------------------

 SCF Done:  E(UB3LYP) =  -75.7723052661     A.U. after    1 cycles

 Unable to determine electronic state:  an orbital has unidentified symmetry.
 Alpha  occ. eigenvalues --  -19.20005  -1.02325  -0.48355  -0.42341  -0.35091
 Alpha virt. eigenvalues --    0.01487   0.29635   0.34903   0.37701   0.40351
 Alpha virt. eigenvalues --    0.50797   0.51980   0.60360   0.91608   0.98303
 Alpha virt. eigenvalues --    0.98365   1.17232   1.24040   1.26787   1.53935

  Beta  occ. eigenvalues --  -19.17447  -0.95272  -0.45810  -0.32541
  Beta virt. eigenvalues --   -0.17756   0.02045   0.30226   0.35361   0.41069
  Beta virt. eigenvalues --    0.43256   0.51808   0.51863   0.62383   0.92373
  Beta virt. eigenvalues --    1.01735   1.02142   1.17769   1.27092   1.27379

 Mulliken charges and spin densities:
               1          2
     1  O   -0.263930   1.013444
     2  H    0.263930  -0.013444
 Sum of Mulliken charges =   0.00000   1.00000

 Dipole moment (field-independent basis, Debye):
    X=              0.0000    Y=              0.0000    Z=             -1.6773  Tot=              1.6773
 Quadrupole moment (field-independent basis, Debye-Ang):
   XX=             -5.4778   YY=             -6.7241   ZZ=             -4.6405
   XY=              0.0000   XZ=              0.0000   YZ=              0.0000

  Exact polarizability:   4.632   0.000   5.238   0.000  -0.000   7.780
 Approx polarizability:   5.471  -0.000   5.656  -0.000  -0.000   9.792

                      1
                     SG
 Frequencies --   3701.3603
 Red. masses --      1.0671
 Frc consts  --      8.6134
 IR Inten    --     11.1304

 - Thermochemistry -
 -------------------
 Temperature   298.150 Kelvin.  Pressure   1.00000 Atm.
 Atom     1 has atomic number  8 and mass  15.99491

 Molecular mass:    17.00274 amu.
 Principal axes and moments of inertia in atomic units:
                           1         2         3
     Eigenvalues --     0.00000   3.20937   3.20937
           X            0.00000  -0.00000   1.00000
           Y            0.00000   1.00000   0.00000
           Z            1.00000   0.00000   0.00000
 This molecule is a prolate symmetric top.
 Rotational symmetry number  1.
 Rotational temperature (Kelvin)     26.98786
 Rotational constant (GHZ):         562.335677
 Zero-point vibrational energy      22139.1 (Joules/Mol)
                                    5.29136 (Kcal/Mol)
 Vibrational temperatures:   5325.43
          (Kelvin)

 Zero-point correction=                           0.008432 (Hartree/Particle)
 Thermal correction to Energy=                    0.010793
 Thermal correction to Enthalpy=                  0.011737
 Thermal correction to Gibbs Free Energy=        -0.008492
 Sum of electronic and zero-point Energies=            -75.763873
 Sum of electronic and thermal Energies=               -75.761512
 Sum of electronic and thermal Enthalpies=             -75.760568
 Sum of electronic and thermal Free Energies=          -75.780797

                     E (Thermal)             CV                S
                      KCal/Mol        Cal/Mol-Kelvin    Cal/Mol-Kelvin
 Total                    6.773              4.968             42.575
 Electronic               0.000              0.000              1.377
 Translational            0.889              2.981             34.437
 Rotational               0.592              1.987              6.761
 Vibrational              5.291              0.000              0.000

 Optimization completed.
    -- Stationary point found.
 Normal termination of Gaussian 16 at Tue Jul  7 20:12:41 2020.
