                         Program Version 4.0.1.2 - RELEASE -
|  1> ! UKS B3LYP cc-pVQZ TightSCF
|  2> ! Opt Freq
|  3> ! bohrs
|  4> * xyz 0 2
|  5> O -1.396288 -0.075107 0.052125
|  6> H -1.775703 1.309756 -1.111179
|  7> **                         ****END OF INPUT****
 Total Charge           Charge          ....    0
 Multiplicity           Mult            ....    2
 Number of Electrons    NEL             ....    9
FINAL SINGLE POINT ENERGY       -75.738993527989
FINAL SINGLE POINT ENERGY       -75.739007787890
                    ***********************HURRAY********************

CARTESIAN COORDINATES (ANGSTROEM)
---------------------------------
  O     -0.739300   -0.038226    0.026307
  H     -0.939245    0.691574   -0.586734

 Multiplicity           Mult            ....    2
 Number of Electrons    NEL             ....    9
 Basis Dimension        Dim             ....   85

ORBITAL ENERGIES
----------------
                 SPIN UP ORBITALS
  NO   OCC          E(Eh)            E(eV)
   0   1.0000     -19.196474      -522.3626
   1   1.0000      -1.019823       -27.7508
   2   1.0000      -0.480139       -13.0652
   3   1.0000      -0.420146       -11.4328
   4   1.0000      -0.347554        -9.4574
   5   0.0000       0.017481         0.4757
   6   0.0000       0.299147         8.1402
   7   0.0000       0.351702         9.5703
   8   0.0000       0.380013        10.3407
   9   0.0000       0.406304        11.0561

                 SPIN DOWN ORBITALS
  NO   OCC          E(Eh)            E(eV)
   0   1.0000     -19.170776      -521.6633
   1   1.0000      -0.948863       -25.8199
   2   1.0000      -0.454446       -12.3661
   3   1.0000      -0.321731        -8.7547
   4   0.0000      -0.173720        -4.7272
   5   0.0000       0.023134         0.6295
   6   0.0000       0.305076         8.3015
   7   0.0000       0.356442         9.6993
   8   0.0000       0.413615        11.2550

MULLIKEN ATOMIC CHARGES AND SPIN POPULATIONS
--------------------------------------------
   0 O :   -0.263271    1.012243
   1 H :    0.263271   -0.012243
Sum of atomic charges         :    0.0000000

LOEWDIN ATOMIC CHARGES AND SPIN POPULATIONS
-------------------------------------------
   0 O :    0.498466    0.888389
   1 H :   -0.498466    0.111611

  Mayer bond orders larger than 0.1
B(  0-O ,  1-H ) :   1.0296

FINAL SINGLE POINT ENERGY       -75.739009838897

DIPOLE MOMENT
-------------
                                X             Y             Z
Electronic contribution:      0.04051      -0.14923       0.12520
Nuclear contribution   :     -0.17629       0.64346      -0.54052
                        -----------------------------------------
Total Dipole Moment    :     -0.13578       0.49423      -0.41532
                        -----------------------------------------
Magnitude (a.u.)       :      0.65969
Magnitude (Debye)      :      1.67680

VIBRATIONAL FREQUENCIES
-----------------------

   0:         0.00 cm**-1
   1:         0.00 cm**-1
   2:         0.00 cm**-1
   3:         0.00 cm**-1
   4:         0.00 cm**-1
   5:      3698.11 cm**-1

IR SPECTRUM
-----------

 Mode    freq (cm**-1)   T**2         TX         TY         TZ
-------------------------------------------------------------------
   5:      3698.11   11.021791  ( -0.683666   2.492082  -2.084207)

--------------------------
THERMOCHEMISTRY AT 298.15K
--------------------------

Temperature         ... 298.15 K
Pressure            ... 1.00 atm
Total Mass          ... 17.01 AMU
The molecule is recognized as being linear

Throughout the following assumptions are being made:
  (1) The electronic state is orbitally nondegenerate
      but the spin degeneracy is treated
  (2) There are no thermally accessible electronically excited states
  (3) Hindered rotations indicated by low frequency modes are not
      treated as such but are treated as vibrations and this may
      cause some error
  (4) All equations used are the standard statistical mechanics
      equations for an ideal gas
  (5) All vibrations are strictly harmonic

freq.    3698.11  E(vib)   ...       0.00

------------
INNER ENERGY
------------

The inner energy is: U= E(el) + E(ZPE) + E(vib) + E(rot) + E(trans)
    E(el)   - is the total energy from the electronic structure calculation
              = E(kin-el) + E(nuc-el) + E(el-el) + E(nuc-nuc)
    E(ZPE)  - the the zero temperature vibrational energy from the frequency calculation
    E(vib)  - the the finite temperature correction to E(ZPE) due to population
              of excited vibrational states
    E(rot)  - is the rotational thermal energy
    E(trans)- is the translational thermal energy

Summary of contributions to the inner energy U:
Electronic energy                ...    -75.73900984 Eh
Zero point energy                ...      0.00842491 Eh       5.29 kcal/mol
Thermal vibrational correction   ...      0.00000000 Eh       0.00 kcal/mol
Thermal rotational correction    ...      0.00094418 Eh       0.59 kcal/mol
Thermal translational correction ...      0.00141627 Eh       0.89 kcal/mol
-----------------------------------------------------------------------
Total thermal energy                    -75.72822447 Eh

Summary of corrections to the electronic energy:
(perhaps to be used in another calculation)
Total thermal correction                  0.00236045 Eh       1.48 kcal/mol
Non-thermal (ZPE) correction              0.00842491 Eh       5.29 kcal/mol
-----------------------------------------------------------------------
Total correction                          0.01078537 Eh       6.77 kcal/mol

--------
ENTHALPY
--------

The enthalpy is H = U + kB*T
                kB is Boltzmann's constant
Total free energy                 ...    -75.72822447 Eh
Thermal Enthalpy correction       ...      0.00094421 Eh       0.59 kcal/mol
-----------------------------------------------------------------------
Total Enthalpy                    ...    -75.72728026 Eh

Vibrational entropy computed according to the QRRHO of S. Grimme
Chem.Eur.J. 2012 18 9955

-------
ENTROPY
-------

The entropy contributions are T*S = T*(S(el)+S(vib)+S(rot)+S(trans)
     S(el)   - electronic entropy
     S(vib)  - vibrational entropy
     S(rot)  - rotational entropy
     S(trans)- translational entropy
The entropies will be listed as mutliplied by the temperature to get
units of energy

Electronic entropy                ...      0.00065446 Eh      0.41 kcal/mol
Vibrational entropy               ...      0.00000000 Eh      0.00 kcal/mol
Rotational entropy                ...      0.00255850 Eh      1.61 kcal/mol
Translational entropy             ...      0.01636225 Eh     10.27 kcal/mol
-----------------------------------------------------------------------
Final entropy term                ...      0.01957521 Eh     12.28 kcal/mol

CAUTION: The rotational entropy is not quite correctly treated here
         because it includes a symmetry number that is not yet correctly
         implemented in ORCA!
For a linear molecule the correct rotational entropy is:
    S(rot) = R*(ln(qrot/sn)+1)
    R    = 8.31441 J/mol/K = 1.987191683e-3 kcal/mol/K
    qrot =   11.0552164
    sn is the rotational symmetry number. We have assumed 2 here
       if it is different for your molecule then you should correct
       the printed rotational entropy by manually evaluating the equation
       as given above

For convenience we print out the resulting values for sn=1 - 12:
 sn= 1  qrot/sn=      11.0552 T*S(rot)=     2.02 kcal/mol T*S(tot)=    12.69 kcal/mol
 sn= 2  qrot/sn=       5.5276 T*S(rot)=     1.61 kcal/mol T*S(tot)=    12.28 kcal/mol
 sn= 3  qrot/sn=       3.6851 T*S(rot)=     1.37 kcal/mol T*S(tot)=    12.04 kcal/mol
 sn= 4  qrot/sn=       2.7638 T*S(rot)=     1.19 kcal/mol T*S(tot)=    11.87 kcal/mol
 sn= 5  qrot/sn=       2.2110 T*S(rot)=     1.06 kcal/mol T*S(tot)=    11.74 kcal/mol
 sn= 6  qrot/sn=       1.8425 T*S(rot)=     0.95 kcal/mol T*S(tot)=    11.63 kcal/mol
 sn= 7  qrot/sn=       1.5793 T*S(rot)=     0.86 kcal/mol T*S(tot)=    11.54 kcal/mol
 sn= 8  qrot/sn=       1.3819 T*S(rot)=     0.78 kcal/mol T*S(tot)=    11.46 kcal/mol
 sn= 9  qrot/sn=       1.2284 T*S(rot)=     0.71 kcal/mol T*S(tot)=    11.39 kcal/mol
 sn=10  qrot/sn=       1.1055 T*S(rot)=     0.65 kcal/mol T*S(tot)=    11.33 kcal/mol
 sn=11  qrot/sn=       1.0050 T*S(rot)=     0.60 kcal/mol T*S(tot)=    11.27 kcal/mol
 sn=12  qrot/sn=       0.9213 T*S(rot)=     0.54 kcal/mol T*S(tot)=    11.22 kcal/mol

-------------------
GIBBS FREE ENTHALPY
-------------------

The Gibbs free enthalpy is G = H - T*S

Total enthalpy                    ...    -75.72728026 Eh
Total entropy correction          ...     -0.01957521 Eh    -12.28 kcal/mol
-----------------------------------------------------------------------
Final Gibbs free enthalpy         ...    -75.74685547 Eh

For completeness - the Gibbs free enthalpy minus the electronic energy
G-E(el)                           ...     -0.00784563 Eh     -4.92 kcal/mol

                             ****ORCA TERMINATED NORMALLY****
TOTAL RUN TIME: 0 days 0 hours 0 minutes 47 seconds 463 msec
