 Gaussian 16, Revision A.03,
 Gaussian 16:  ES64L-G16RevA.03 25-Dec-2016

 -----------------------------------------
 # ccsd/cc-pvdz pop=full geom=connectivity
 -----------------------------------------

 --
 D4
 --
 Symbolic Z-matrix:
 Charge =  0 Multiplicity = 1

                         Standard orientation:
 ---------------------------------------------------------------------
 Center     Atomic      Atomic             Coordinates (Angstroms)
 Number     Number       Type             X           Y           Z
 ---------------------------------------------------------------------
      1          8           0        1.344525   -1.290774   -0.295546
      2          8           0       -1.339123   -1.296676   -0.297878
      3          8           0       -1.343691    1.323594    0.298657
      4          8           0        1.340001    1.331377    0.293302
      5         14           0        2.281871    0.008942    0.056938
      6         14           0       -2.281211   -0.001081    0.057296
      7         14           0        0.004638   -2.223589   -0.135430
      8         14           0       -0.004977    2.230877    0.021156
      9          6           0        3.230051   -0.306543    1.635679
     10          1           0        3.873102   -1.188839    1.542392
     11          1           0        2.547045   -0.473325    2.475836
     12          6           0        3.419723    0.302058   -1.395347
     13          1           0        4.064178    1.171460   -1.223617
     14          1           0        4.063823   -0.567211   -1.569382
     15          1           0        2.846044    0.482239   -2.311070
     16          6           0       -0.009885    2.828402   -1.752334
     17          1           0       -0.898118    3.435559   -1.960457
     18          1           0        0.873652    3.441433   -1.963211
     19          1           0       -0.008122    1.986182   -2.453561
     20          6           0       -0.006793    3.642455    1.240769
     21          1           0        0.878022    4.275947    1.113515
     22          1           0       -0.895445    4.271143    1.116446
     23          1           0       -0.004069    3.261166    2.267707
     24          6           0       -3.418505    0.292059   -1.395440
     25          1           0       -4.059420   -0.578961   -1.572452
     26          1           0       -4.066148    1.158763   -1.222070
     27          1           0       -2.844530    0.476636   -2.310099
     28          6           0       -3.229967   -0.323773    1.634212
     29          1           0       -3.868714    0.530066    1.886721
     30          1           0       -3.869969   -1.207965    1.538016
     31          1           0       -2.547259   -0.490396    2.474635
     32          6           0        0.008412   -3.476797   -1.517474
     33          1           0        0.008053   -2.974270   -2.490859
     34          1           0        0.896473   -4.116606   -1.468312
     35          1           0       -0.876954   -4.120433   -1.469648
     36          6           0        0.005103   -3.034279    1.551071
     37          1           0       -0.879675   -3.667266    1.682980
     38          1           0        0.892247   -3.663692    1.684187
     39          1           0        0.003068   -2.285456    2.351089
     40          1           0        3.865693    0.550063    1.886669
 ---------------------------------------------------------------------

 SCF Done:  E(RHF) =  -1772.63082286     A.U. after   12 cycles
 E2 =    -0.2247041501D+01 EUMP2 =    -0.17748778643609D+04

 The electronic state is 1-A.
 Alpha  occ. eigenvalues --  -68.81939 -68.81885 -68.81884 -68.81884 -20.53393
 Alpha  occ. eigenvalues --  -20.53391 -20.53341 -20.53337 -11.20525 -11.20504
 Alpha  occ. eigenvalues --  -11.20279 -11.20277 -11.20254 -11.20250 -11.20117
 Alpha  occ. eigenvalues --  -11.20078  -6.15826  -6.15780  -6.15779  -6.15774
 Alpha  occ. eigenvalues --   -4.26677  -4.26632  -4.26632  -4.26624  -4.26533
 Alpha  occ. eigenvalues --   -4.26483  -4.26482  -4.26480  -4.26409  -4.26359
 Alpha  occ. eigenvalues --   -4.26359  -4.26357  -1.34333  -1.31984  -1.31960
 Alpha  occ. eigenvalues --   -1.29445  -0.95959  -0.95010  -0.94953  -0.94441
 Alpha  occ. eigenvalues --   -0.92476  -0.92332  -0.92300  -0.92163  -0.77656
 Alpha  occ. eigenvalues --   -0.73281  -0.73075  -0.66058  -0.59950  -0.59678
 Alpha  occ. eigenvalues --   -0.57938  -0.57363  -0.56968  -0.56959  -0.55799
 Alpha  occ. eigenvalues --   -0.55704  -0.55590  -0.55502  -0.55179  -0.54882
 Alpha  occ. eigenvalues --   -0.53969  -0.53775  -0.53635  -0.53612  -0.53590
 Alpha  occ. eigenvalues --   -0.53369  -0.52622  -0.52552  -0.52093  -0.51557
 Alpha  occ. eigenvalues --   -0.51152  -0.50041  -0.48195  -0.47885  -0.47486
 Alpha  occ. eigenvalues --   -0.46929  -0.43401  -0.41094  -0.40890  -0.39393
 Alpha virt. eigenvalues --    0.14686   0.17430   0.17995   0.19248   0.20883
 Alpha virt. eigenvalues --    0.21435   0.22627   0.23093   0.23228   0.23487
 Alpha virt. eigenvalues --    0.23508   0.24016   0.24089   0.25436   0.25630

 Mulliken charges:
               1
     1  O   -0.796961
     2  O   -0.796849
     3  O   -0.795247
     4  O   -0.795259
     5  Si   1.123888
     6  Si   1.123846
     7  Si   1.116433
     8  Si   1.116253
     9  C   -0.299660
    10  H    0.044406
    11  H    0.046714
    12  C   -0.299601
    13  H    0.044403
    14  H    0.046209
    15  H    0.047341
    16  C   -0.315742
    17  H    0.046854
    18  H    0.046877
    19  H    0.044945
    20  C   -0.287683
    21  H    0.044377
    22  H    0.044365
    23  H    0.050631
    24  C   -0.299758
    25  H    0.046252
    26  H    0.044399
    27  H    0.047373
    28  C   -0.299650
    29  H    0.046830
    30  H    0.044418
    31  H    0.046753
    32  C   -0.286656
    33  H    0.050149
    34  H    0.044640
    35  H    0.044648
    36  C   -0.314951
    37  H    0.046646
    38  H    0.046644
    39  H    0.044904
    40  H    0.046820
 Sum of Mulliken charges =  -0.00000

 Dipole moment (field-independent basis, Debye):
    X=             -0.0025    Y=             -0.0787    Z=              0.0006  Tot=              0.0787
 Quadrupole moment (field-independent basis, Debye-Ang):
   XX=           -125.0550   YY=           -125.1611   ZZ=           -129.3902
   XY=             -0.0077   XZ=              0.0087   YZ=             -2.1104

 Normal termination of Gaussian 16 at Tue Jun 15 18:21:41 2021.
