 Gaussian 16, Revision A.03,
 Gaussian 16:  ES64L-G16RevA.03 25-Dec-2016

 ----------------------------------------------------------------------
 # opt=(calcfc,noeigentest,maxcycles=200) freq b3lyp/6-31+g(2df,p) geom
 =connectivity
 ----------------------------------------------------------------------

 --
 D4
 --
 Symbolic Z-matrix:
 Charge =  0 Multiplicity = 1

 SCF Done:  E(RB3LYP) =  -1778.82122181     A.U. after   12 cycles
 SCF Done:  E(RB3LYP) =  -1778.82590630     A.U. after   10 cycles
 SCF Done:  E(RB3LYP) =  -1778.82736255     A.U. after   10 cycles
 SCF Done:  E(RB3LYP) =  -1778.82794950     A.U. after   10 cycles
 SCF Done:  E(RB3LYP) =  -1778.82798444     A.U. after    8 cycles
 SCF Done:  E(RB3LYP) =  -1778.82811056     A.U. after    9 cycles
 SCF Done:  E(RB3LYP) =  -1778.82819737     A.U. after   10 cycles
 SCF Done:  E(RB3LYP) =  -1778.82821872     A.U. after    9 cycles
 SCF Done:  E(RB3LYP) =  -1778.82822405     A.U. after    9 cycles
 SCF Done:  E(RB3LYP) =  -1778.82822407     A.U. after    7 cycles
 SCF Done:  E(RB3LYP) =  -1778.82822427     A.U. after    8 cycles
 SCF Done:  E(RB3LYP) =  -1778.82822441     A.U. after    9 cycles
 SCF Done:  E(RB3LYP) =  -1778.82822459     A.U. after    8 cycles
 SCF Done:  E(RB3LYP) =  -1778.82822512     A.U. after    9 cycles
 SCF Done:  E(RB3LYP) =  -1778.82822539     A.U. after    9 cycles
 SCF Done:  E(RB3LYP) =  -1778.82822538     A.U. after    9 cycles
 SCF Done:  E(RB3LYP) =  -1778.82822576     A.U. after   10 cycles
 SCF Done:  E(RB3LYP) =  -1778.82822577     A.U. after    7 cycles
 SCF Done:  E(RB3LYP) =  -1778.82822580     A.U. after    8 cycles
 Optimization completed on the basis of negligible forces.
    -- Stationary point found.
 Normal termination of Gaussian 16 at Sun May 30 17:37:46 2021.

 ----------------------------------------------------------------------
 #N Geom=AllCheck Guess=TCheck SCRF=Check GenChk RB3LYP/6-31+G(2df,p) F
 req
 ----------------------------------------------------------------------

 Structure from the checkpoint file:  "/scratch/summit/mial5369/7475239/Gau-22921.chk"
 --
 D4
 --
 Charge =  0 Multiplicity = 1

                         Standard orientation:
 ---------------------------------------------------------------------
 Center     Atomic      Atomic             Coordinates (Angstroms)
 Number     Number       Type             X           Y           Z
 ---------------------------------------------------------------------
      1          8           0       -1.344525    1.290774   -0.295546
      2          8           0        1.339123    1.296676   -0.297878
      3          8           0        1.343691   -1.323594    0.298657
      4          8           0       -1.340001   -1.331377    0.293302
      5         14           0       -2.281871   -0.008942    0.056938
      6         14           0        2.281211    0.001081    0.057296
      7         14           0       -0.004638    2.223589   -0.135430
      8         14           0        0.004977   -2.230877    0.021156
      9          6           0       -3.230051    0.306543    1.635679
     10          1           0       -3.873102    1.188839    1.542392
     11          1           0       -2.547045    0.473325    2.475836
     12          6           0       -3.419723   -0.302058   -1.395347
     13          1           0       -4.064178   -1.171460   -1.223617
     14          1           0       -4.063823    0.567211   -1.569382
     15          1           0       -2.846044   -0.482239   -2.311070
     16          6           0        0.009885   -2.828402   -1.752334
     17          1           0        0.898118   -3.435559   -1.960457
     18          1           0       -0.873652   -3.441433   -1.963211
     19          1           0        0.008122   -1.986182   -2.453561
     20          6           0        0.006793   -3.642455    1.240769
     21          1           0       -0.878022   -4.275947    1.113515
     22          1           0        0.895445   -4.271143    1.116446
     23          1           0        0.004069   -3.261166    2.267707
     24          6           0        3.418505   -0.292059   -1.395440
     25          1           0        4.059420    0.578961   -1.572452
     26          1           0        4.066148   -1.158763   -1.222070
     27          1           0        2.844530   -0.476636   -2.310099
     28          6           0        3.229967    0.323773    1.634212
     29          1           0        3.868714   -0.530066    1.886721
     30          1           0        3.869969    1.207965    1.538016
     31          1           0        2.547259    0.490396    2.474635
     32          6           0       -0.008412    3.476797   -1.517474
     33          1           0       -0.008053    2.974270   -2.490859
     34          1           0       -0.896473    4.116606   -1.468312
     35          1           0        0.876954    4.120433   -1.469648
     36          6           0       -0.005103    3.034279    1.551071
     37          1           0        0.879675    3.667266    1.682980
     38          1           0       -0.892247    3.663692    1.684187
     39          1           0       -0.003068    2.285456    2.351089
     40          1           0       -3.865693   -0.550063    1.886669
 ---------------------------------------------------------------------

 SCF Done:  E(RB3LYP) =  -1778.82822580     A.U. after    1 cycles

 The electronic state is 1-A.
 Alpha  occ. eigenvalues --  -66.15822 -66.15815 -66.15813 -66.15775 -19.12508
 Alpha  occ. eigenvalues --  -19.12507 -19.12469 -19.12467 -10.16271 -10.16245
 Alpha  occ. eigenvalues --  -10.16118 -10.16117 -10.16103 -10.16100 -10.16022
 Alpha  occ. eigenvalues --  -10.15991  -5.29542  -5.29516  -5.29516  -5.29503
 Alpha  occ. eigenvalues --   -3.65664  -3.65648  -3.65647  -3.65623  -3.65486
 Alpha  occ. eigenvalues --   -3.65455  -3.65455  -3.65448  -3.65306  -3.65280
 Alpha  occ. eigenvalues --   -3.65280  -3.65268  -1.00192  -0.98177  -0.98153
 Alpha  occ. eigenvalues --   -0.96005  -0.71154  -0.70295  -0.70264  -0.69813
 Alpha  occ. eigenvalues --   -0.68262  -0.68140  -0.68117  -0.68001  -0.57621
 Alpha  occ. eigenvalues --   -0.54127  -0.53964  -0.48507  -0.42597  -0.42328
 Alpha  occ. eigenvalues --   -0.41458  -0.41423  -0.41292  -0.41166  -0.40710
 Alpha  occ. eigenvalues --   -0.40646  -0.40457  -0.40359  -0.39819  -0.39750
 Alpha  occ. eigenvalues --   -0.39328  -0.39184  -0.39054  -0.39051  -0.39003
 Alpha  occ. eigenvalues --   -0.38624  -0.37496  -0.37028  -0.36734  -0.36095
 Alpha  occ. eigenvalues --   -0.35864  -0.34113  -0.34057  -0.33453  -0.32306
 Alpha  occ. eigenvalues --   -0.31005  -0.30489  -0.28254  -0.28068  -0.26957
 Alpha virt. eigenvalues --   -0.01460   0.00070   0.00132   0.00915   0.01786
 Alpha virt. eigenvalues --    0.02565   0.02679   0.03905   0.04416   0.04452
 Alpha virt. eigenvalues --    0.05268   0.05298   0.05689   0.06094   0.06128

 Mulliken charges:
               1
     1  O    0.208371
     2  O    0.208277
     3  O    0.201705
     4  O    0.202740
     5  Si  -0.051082
     6  Si  -0.051304
     7  Si  -0.026183
     8  Si   0.034015
     9  C   -0.597043
    10  H    0.171709
    11  H    0.169669
    12  C   -0.591922
    13  H    0.171828
    14  H    0.173178
    15  H    0.170238
    16  C   -0.626006
    17  H    0.174222
    18  H    0.174175
    19  H    0.172180
    20  C   -0.619166
    21  H    0.171058
    22  H    0.171048
    23  H    0.169313
    24  C   -0.591697
    25  H    0.173192
    26  H    0.171802
    27  H    0.170282
    28  C   -0.597170
    29  H    0.173869
    30  H    0.171711
    31  H    0.169690
    32  C   -0.622149
    33  H    0.168851
    34  H    0.171276
    35  H    0.171291
    36  C   -0.604127
    37  H    0.173905
    38  H    0.173870
    39  H    0.170515
    40  H    0.173869
 Sum of Mulliken charges =  -0.00000

 Dipole moment (field-independent basis, Debye):
    X=              0.0021    Y=              0.0652    Z=             -0.0020  Tot=              0.0652
 Quadrupole moment (field-independent basis, Debye-Ang):
   XX=           -124.9256   YY=           -125.0571   ZZ=           -129.4183
   XY=             -0.0064   XZ=             -0.0066   YZ=              1.6069

  Exact polarizability: 195.795   0.000 195.094  -0.005   1.679 189.906
 Approx polarizability: 251.682   0.002 251.560  -0.001   0.362 259.312

                      1                      2                      3
                      A                      A                      A
 Frequencies --      5.6222                20.8952                29.3474
 Red. masses --      3.4597                 3.7989                 3.7396
 Frc consts  --      0.0001                 0.0010                 0.0019
 IR Inten    --      0.0540                 0.0261                 0.1356

                      4                      5                      6
                      A                      A                      A
 Frequencies --     29.8006                32.9904                64.9313
 Red. masses --      3.6840                 3.3970                 5.1430
 Frc consts  --      0.0019                 0.0022                 0.0128
 IR Inten    --      0.0697                 0.8371                 0.0031

                      7                      8                      9
                      A                      A                      A
 Frequencies --    130.4613               142.6384               146.2177
 Red. masses --      3.8037                 1.3697                 1.0320
 Frc consts  --      0.0381                 0.0164                 0.0130
 IR Inten    --      0.0030                 0.0330                 0.0039

                     10                     11                     12
                      A                      A                      A
 Frequencies --    146.8337               147.0010               148.1041
 Red. masses --      1.0167                 1.0619                 1.3790
 Frc consts  --      0.0129                 0.0135                 0.0178
 IR Inten    --      0.0003                 0.0034                 0.0792

                     13                     14                     15
                      A                      A                      A
 Frequencies --    155.6504               159.1778               159.5823
 Red. masses --      1.1051                 1.1298                 1.0994
 Frc consts  --      0.0158                 0.0169                 0.0165
 IR Inten    --      0.0263                 0.0000                 0.0000

                     16                     17                     18
                      A                      A                      A
 Frequencies --    166.3259               172.8283               173.9055
 Red. masses --      1.0606                 1.7689                 2.4735
 Frc consts  --      0.0173                 0.0311                 0.0441
 IR Inten    --      0.0007                 0.0162                 0.0159

                     19                     20                     21
                      A                      A                      A
 Frequencies --    175.8064               181.3030               190.3478
 Red. masses --      2.2136                 3.0944                 2.7219
 Frc consts  --      0.0403                 0.0599                 0.0581
 IR Inten    --      0.1431                 0.0028                 0.0281

                     22                     23                     24
                      A                      A                      A
 Frequencies --    191.3061               196.8789               199.3700
 Red. masses --      2.8772                 2.7055                 2.6692
 Frc consts  --      0.0620                 0.0618                 0.0625
 IR Inten    --      0.0222                 0.5886                 0.6412

                     25                     26                     27
                      A                      A                      A
 Frequencies --    247.0262               254.6444               263.5791
 Red. masses --      3.1157                 2.9307                 3.6115
 Frc consts  --      0.1120                 0.1120                 0.1478
 IR Inten    --      0.0225                 0.0744                 0.0801

                     28                     29                     30
                      A                      A                      A
 Frequencies --    265.8692               321.7464               338.4135
 Red. masses --      3.9783                 4.5882                 4.1857
 Frc consts  --      0.1657                 0.2798                 0.2824
 IR Inten    --      4.1283                 0.2296                 0.8040

                     31                     32                     33
                      A                      A                      A
 Frequencies --    350.9378               357.0007               371.0360
 Red. masses --      6.7338                 7.6036                 4.2864
 Frc consts  --      0.4886                 0.5710                 0.3477
 IR Inten    --     88.9726                84.7878                87.2914

                     34                     35                     36
                      A                      A                      A
 Frequencies --    435.1629               452.8736               523.5389
 Red. masses --      9.4165                 5.2680                 4.1356
 Frc consts  --      1.0506                 0.6366                 0.6679
 IR Inten    --      0.0317                 0.0421                18.6545

                     37                     38                     39
                      A                      A                      A
 Frequencies --    526.3679               618.1875               648.7704
 Red. masses --      4.0183                 2.8196                 3.5463
 Frc consts  --      0.6560                 0.6349                 0.8795
 IR Inten    --     24.4050                 0.0308                 0.2224

                     40                     41                     42
                      A                      A                      A
 Frequencies --    682.9238               687.0855               687.4018
 Red. masses --      2.2330                 2.8181                 1.7620
 Frc consts  --      0.6136                 0.7838                 0.4905
 IR Inten    --     24.5543                37.8834                12.2577

                     43                     44                     45
                      A                      A                      A
 Frequencies --    687.8742               687.9669               692.2867
 Red. masses --      1.7769                 1.7302                 2.0444
 Frc consts  --      0.4954                 0.4825                 0.5773
 IR Inten    --      4.3649                 0.5982                18.0646

                     46                     47                     48
                      A                      A                      A
 Frequencies --    706.8884               752.0898               754.2208
 Red. masses --      2.7785                 1.2589                 1.2744
 Frc consts  --      0.8180                 0.4195                 0.4271
 IR Inten    --      0.0308                 0.0405                 0.0025

                     49                     50                     51
                      A                      A                      A
 Frequencies --    754.8355               757.0278               789.5770
 Red. masses --      1.2779                 1.2881                 2.5299
 Frc consts  --      0.4290                 0.4349                 0.9293
 IR Inten    --      0.0029                 0.0149                19.2311

                     52                     53                     54
                      A                      A                      A
 Frequencies --    797.9299               797.9805               808.0256
 Red. masses --      2.5016                 2.5750                 1.4865
 Frc consts  --      0.9384                 0.9661                 0.5718
 IR Inten    --      0.6691                 0.7913                 0.0179

                     55                     56                     57
                      A                      A                      A
 Frequencies --    814.2750               833.9988               834.7396
 Red. masses --      2.6715                 1.4704                 1.4753
 Frc consts  --      1.0436                 0.6026                 0.6057
 IR Inten    --    450.4831               219.0803               215.8788

                     58                     59                     60
                      A                      A                      A
 Frequencies --    839.9610               876.9111               877.3445
 Red. masses --      1.4643                 1.9185                 1.9041
 Frc consts  --      0.6087                 0.8692                 0.8635
 IR Inten    --      1.2046                31.1149                15.2847

                     61                     62                     63
                      A                      A                      A
 Frequencies --    880.4938               893.3689              1020.6067
 Red. masses --      1.8668                 2.1533                14.3956
 Frc consts  --      0.8527                 1.0125                 8.8348
 IR Inten    --      0.0195                 0.0112                 0.1330

                     64                     65                     66
                      A                      A                      A
 Frequencies --   1094.0992              1100.4197              1101.8809
 Red. masses --     14.1341                16.1306                16.1064
 Frc consts  --      9.9685                11.5084                11.5217
 IR Inten    --     16.6630              1424.7285              1337.1377

                     67                     68                     69
                      A                      A                      A
 Frequencies --   1285.0497              1285.7866              1286.1064
 Red. masses --      1.2773                 1.2758                 1.2772
 Frc consts  --      1.2428                 1.2427                 1.2447
 IR Inten    --      0.6030                 1.5482                 0.6703

                     70                     71                     72
                      A                      A                      A
 Frequencies --   1287.3064              1288.3059              1288.4474
 Red. masses --      1.2747                 1.2647                 1.2526
 Frc consts  --      1.2446                 1.2368                 1.2251
 IR Inten    --    177.9329                 1.8713                99.0774

                     73                     74                     75
                      A                      A                      A
 Frequencies --   1288.6960              1290.3720              1442.7922
 Red. masses --      1.2534                 1.2484                 1.0518
 Frc consts  --      1.2264                 1.2247                 1.2899
 IR Inten    --    114.0094                 2.5743                 0.6296

                     76                     77                     78
                      A                      A                      A
 Frequencies --   1445.7890              1446.3050              1447.8881
 Red. masses --      1.0519                 1.0521                 1.0518
 Frc consts  --      1.2954                 1.2967                 1.2991
 IR Inten    --      0.0080                 0.0059                 0.3081

                     79                     80                     81
                      A                      A                      A
 Frequencies --   1448.9350              1449.4259              1449.8210
 Red. masses --      1.0523                 1.0517                 1.0519
 Frc consts  --      1.3016                 1.3017                 1.3028
 IR Inten    --      0.7704                 0.1221                 0.1374

                     82                     83                     84
                      A                      A                      A
 Frequencies --   1451.3925              1454.7375              1456.1168
 Red. masses --      1.0515                 1.0490                 1.0467
 Frc consts  --      1.3050                 1.3080                 1.3076
 IR Inten    --      5.7339                 0.2167                 0.5298

                     85                     86                     87
                      A                      A                      A
 Frequencies --   1456.5718              1456.6829              1459.9233
 Red. masses --      1.0484                 1.0485                 1.0484
 Frc consts  --      1.3105                 1.3108                 1.3165
 IR Inten    --     15.8138                 2.1483                 0.0631

                     88                     89                     90
                      A                      A                      A
 Frequencies --   1460.0902              1460.2886              1462.7991
 Red. masses --      1.0470                 1.0472                 1.0468
 Frc consts  --      1.3151                 1.3157                 1.3197
 IR Inten    --     19.1427                 6.2300                 0.0833

                     91                     92                     93
                      A                      A                      A
 Frequencies --   3022.5966              3023.0781              3023.8506
 Red. masses --      1.0351                 1.0351                 1.0351
 Frc consts  --      5.5718                 5.5736                 5.5763
 IR Inten    --      4.5456                 2.4598                 0.9023

                     94                     95                     96
                      A                      A                      A
 Frequencies --   3023.9291              3025.9804              3026.0100
 Red. masses --      1.0351                 1.0349                 1.0349
 Frc consts  --      5.5766                 5.5833                 5.5835
 IR Inten    --     19.3743                 2.8286                 5.3808

                     97                     98                     99
                      A                      A                      A
 Frequencies --   3026.4396              3026.5409              3098.8258
 Red. masses --      1.0349                 1.0349                 1.0996
 Frc consts  --      5.5850                 5.5851                 6.2210
 IR Inten    --      9.1076                 0.0112                15.0758

                    100                    101                    102
                      A                      A                      A
 Frequencies --   3099.3163              3099.5414              3099.5859
 Red. masses --      1.0998                 1.0998                 1.0996
 Frc consts  --      6.2241                 6.2250                 6.2243
 IR Inten    --      7.5439                 1.0706                12.8716

                    103                    104                    105
                      A                      A                      A
 Frequencies --   3099.8430              3100.0475              3102.3050
 Red. masses --      1.0997                 1.0996                 1.0996
 Frc consts  --      6.2257                 6.2262                 6.2350
 IR Inten    --      1.1001                 1.2231                 1.6887

                    106                    107                    108
                      A                      A                      A
 Frequencies --   3102.5852              3102.8956              3103.1910
 Red. masses --      1.0994                 1.0997                 1.0996
 Frc consts  --      6.2352                 6.2382                 6.2388
 IR Inten    --     23.2882                10.5563                35.0590

                    109                    110                    111
                      A                      A                      A
 Frequencies --   3103.2040              3103.3277              3103.5863
 Red. masses --      1.0996                 1.0996                 1.0994
 Frc consts  --      6.2388                 6.2392                 6.2393
 IR Inten    --     43.0301                10.4969                30.3694

                    112                    113                    114
                      A                      A                      A
 Frequencies --   3103.6224              3104.7790              3104.9577
 Red. masses --      1.0994                 1.0997                 1.0997
 Frc consts  --      6.2393                 6.2456                 6.2464
 IR Inten    --      4.6782                12.7110                13.4757

 - Thermochemistry -
 -------------------
 Temperature   298.150 Kelvin.  Pressure   1.00000 Atm.
 Atom     1 has atomic number  8 and mass  15.99491

 Molecular mass:   296.07517 amu.
 Principal axes and moments of inertia in atomic units:
                           1         2         3
     Eigenvalues --  4916.738315054.844887718.75428
           X            1.00000  -0.00073  -0.00004
           Y            0.00073   0.99996   0.00922
           Z            0.00003  -0.00922   0.99996
 This molecule is an asymmetric top.
 Rotational symmetry number  1.
 Warning -- assumption of classical behavior for rotation
           may cause significant error
 Rotational temperatures (Kelvin)      0.01762     0.01713     0.01122
 Rotational constants (GHZ):           0.36706     0.35703     0.23381
 Zero-point vibrational energy     829815.8 (Joules/Mol)
                                  198.33073 (Kcal/Mol)
 Warning -- explicit consideration of  38 degrees of freedom as
           vibrations may cause significant error
 Vibrational temperatures:      8.09    30.06    42.22    42.88    47.47
          (Kelvin)             93.42   187.70   205.22   210.37   211.26
                              211.50   213.09   223.95   229.02   229.60
                              239.31   248.66   250.21   252.95   260.85
                              273.87   275.25   283.26   286.85   355.42
                              366.38   379.23   382.53   462.92   486.90
                              504.92   513.64   533.84   626.10   651.58
                              753.26   757.33   889.43   933.44   982.58
                              988.56   989.02   989.70   989.83   996.05
                             1017.05  1082.09  1085.16  1086.04  1089.19
                             1136.03  1148.04  1148.12  1162.57  1171.56
                             1199.94  1201.00  1208.52  1261.68  1262.30
                             1266.83  1285.36  1468.43  1574.16  1583.26
                             1585.36  1848.90  1849.96  1850.42  1852.15
                             1853.58  1853.79  1854.15  1856.56  2075.86
                             2080.17  2080.91  2083.19  2084.69  2085.40
                             2085.97  2088.23  2093.04  2095.03  2095.68
                             2095.84  2100.50  2100.74  2101.03  2104.64
                             4348.84  4349.54  4350.65  4350.76  4353.71
                             4353.75  4354.37  4354.52  4458.52  4459.22
                             4459.55  4459.61  4459.98  4460.28  4463.52
                             4463.93  4464.37  4464.80  4464.82  4465.00
                             4465.37  4465.42  4467.08  4467.34

 Zero-point correction=                           0.316060 (Hartree/Particle)
 Thermal correction to Energy=                    0.342532
 Thermal correction to Enthalpy=                  0.343476
 Thermal correction to Gibbs Free Energy=         0.257363
 Sum of electronic and zero-point Energies=          -1778.512166
 Sum of electronic and thermal Energies=             -1778.485694
 Sum of electronic and thermal Enthalpies=           -1778.484749
 Sum of electronic and thermal Free Energies=        -1778.570862

                     E (Thermal)             CV                S
                      KCal/Mol        Cal/Mol-Kelvin    Cal/Mol-Kelvin
 Total                  214.942             93.528            181.240
 Electronic               0.000              0.000              0.000
 Translational            0.889              2.981             42.953
 Rotational               0.889              2.981             33.617
 Vibrational            213.165             87.567            104.670
 Vibration     1          0.593              1.987              9.155
 Vibration     2          0.593              1.986              6.547
 Vibration     3          0.593              1.984              5.873
 Vibration     4          0.594              1.984              5.843
 Vibration     5          0.594              1.983              5.641
 Vibration     6          0.597              1.971              4.301
 Vibration     7          0.612              1.923              2.939
 Vibration     8          0.616              1.911              2.768
 Vibration     9          0.617              1.907              2.721
 Vibration    10          0.617              1.906              2.713
 Vibration    11          0.617              1.906              2.711
 Vibration    12          0.617              1.905              2.696
 Vibration    13          0.620              1.896              2.602
 Vibration    14          0.621              1.892              2.560
 Vibration    15          0.621              1.892              2.555
 Vibration    16          0.624              1.884              2.477
 Vibration    17          0.626              1.876              2.405
 Vibration    18          0.627              1.875              2.393
 Vibration    19          0.628              1.872              2.372
 Vibration    20          0.630              1.865              2.315
 Vibration    21          0.634              1.853              2.224
 Vibration    22          0.634              1.852              2.215
 Vibration    23          0.636              1.844              2.162
 Vibration    24          0.637              1.841              2.139
 Vibration    25          0.661              1.768              1.752
 Vibration    26          0.665              1.755              1.698
 Vibration    27          0.670              1.740              1.638
 Vibration    28          0.672              1.736              1.623
 Vibration    29          0.707              1.632              1.301
 Vibration    30          0.719              1.599              1.220
 Vibration    31          0.728              1.573              1.162
 Vibration    32          0.732              1.561              1.135
 Vibration    33          0.743              1.532              1.076
 Vibration    34          0.796              1.394              0.842
 Vibration    35          0.811              1.355              0.787
 Vibration    36          0.878              1.198              0.602
 Vibration    37          0.881              1.192              0.595
 Vibration    38          0.978              0.993              0.419

 Optimization completed on the basis of negligible forces.
    -- Stationary point found.
 Normal termination of Gaussian 16 at Sun May 30 18:44:03 2021.
