 Gaussian 16, Revision A.03,
 Gaussian 16:  ES64L-G16RevA.03 25-Dec-2016

 ----------------------------------------------------------------------
 # opt=(calcfc,ts,noeigentest) freq b3lyp/6-31+g(2df,p) scf=qc geom=con
 nectivity
 ----------------------------------------------------------------------

 --------
 D4+OH TS
 --------
 Symbolic Z-matrix:
 Charge =  0 Multiplicity = 2

 SCF Done:  E(UB3LYP) =  -1854.56777602     a.u. after    8 cycles
 SCF Done:  E(UB3LYP) =  -1854.57116544     a.u. after   13 cycles
 SCF Done:  E(UB3LYP) =  -1854.57214933     a.u. after   13 cycles
 SCF Done:  E(UB3LYP) =  -1854.57262716     a.u. after   13 cycles
 SCF Done:  E(UB3LYP) =  -1854.57283087     a.u. after   13 cycles
 SCF Done:  E(UB3LYP) =  -1854.57290662     a.u. after   13 cycles
 SCF Done:  E(UB3LYP) =  -1854.57292976     a.u. after    9 cycles
 SCF Done:  E(UB3LYP) =  -1854.57293906     a.u. after    9 cycles
 SCF Done:  E(UB3LYP) =  -1854.57294429     a.u. after    9 cycles
 SCF Done:  E(UB3LYP) =  -1854.57294738     a.u. after    9 cycles
 SCF Done:  E(UB3LYP) =  -1854.57295601     a.u. after    2 cycles
 SCF Done:  E(UB3LYP) =  -1854.57295605     a.u. after    2 cycles
 SCF Done:  E(UB3LYP) =  -1854.57295601     a.u. after    2 cycles
 SCF Done:  E(UB3LYP) =  -1854.57295605     a.u. after    2 cycles
 SCF Done:  E(UB3LYP) =  -1854.57295598     a.u. after    2 cycles
 SCF Done:  E(UB3LYP) =  -1854.57295609     a.u. after    2 cycles
 SCF Done:  E(UB3LYP) =  -1854.57295614     a.u. after    2 cycles
 SCF Done:  E(UB3LYP) =  -1854.57295617     a.u. after    2 cycles
 SCF Done:  E(UB3LYP) =  -1854.57295619     a.u. after    2 cycles
 Optimization completed.
    -- Stationary point found.
 Normal termination of Gaussian 16 at Fri May 28 13:06:54 2021.

 ----------------------------------------------------------------------
 #N Geom=AllCheck Guess=TCheck SCRF=Check GenChk UB3LYP/6-31+G(2df,p) F
 req
 ----------------------------------------------------------------------

 Structure from the checkpoint file:  "/scratch/summit/mial5369/7447390/Gau-168175.chk"
 --------
 D4+OH TS
 --------
 Charge =  0 Multiplicity = 2

                         Standard orientation:
 ---------------------------------------------------------------------
 Center     Atomic      Atomic             Coordinates (Angstroms)
 Number     Number       Type             X           Y           Z
 ---------------------------------------------------------------------
      1          8           0        0.354744    1.716364    0.487794
      2          8           0       -2.036737    0.581959    0.063334
      3          8           0       -0.825377   -1.792229   -0.264464
      4          8           0        1.579433   -0.643095    0.062358
      5         14           0        1.797261    0.972047    0.273334
      6         14           0       -2.244579   -0.977898   -0.403764
      7         14           0       -1.227201    2.005010    0.143637
      8         14           0        0.675656   -1.987252    0.364231
      9          6           0        2.609448    1.595658   -1.291936
     10          1           0        3.042309    2.599074   -1.235443
     11          1           0        1.998802    1.504319   -2.194440
     12          6           0        2.855424    1.288254    1.773179
     13          1           0        3.839885    0.821737    1.659989
     14          1           0        3.004303    2.362704    1.926911
     15          1           0        2.385056    0.882171    2.675215
     16          6           0        0.557609   -2.262923    2.210400
     17          1           0       -0.032970   -3.158138    2.435425
     18          1           0        1.550741   -2.395478    2.654097
     19          1           0        0.078020   -1.412408    2.708041
     20          6           0        1.488317   -3.416089   -0.517333
     21          1           0        2.505188   -3.586956   -0.146383
     22          1           0        0.918820   -4.340957   -0.373999
     23          1           0        1.545503   -3.222684   -1.594239
     24          6           0       -3.514240   -1.749220    0.726918
     25          1           0       -4.474933   -1.227681    0.651315
     26          1           0       -3.680428   -2.802241    0.473753
     27          1           0       -3.187465   -1.700029    1.771380
     28          6           0       -2.768200   -1.038386   -2.195671
     29          1           0       -2.915802   -2.073490   -2.523558
     30          1           0       -3.707863   -0.497120   -2.352586
     31          1           0       -2.006978   -0.588930   -2.842782
     32          6           0       -1.943187    3.003945    1.546060
     33          1           0       -1.850139    2.460664    2.492666
     34          1           0       -1.423149    3.962156    1.654235
     35          1           0       -3.005965    3.211446    1.379357
     36          6           0       -1.354933    2.894942   -1.495938
     37          1           0       -2.400749    3.107420   -1.744864
     38          1           0       -0.815481    3.848384   -1.468773
     39          1           0       -0.933726    2.294258   -2.309695
     40          8           0        4.491901   -0.128635   -1.674533
     41          1           0        3.912019   -0.873549   -1.435820
     42          1           0        3.545929    0.886658   -1.473923
 ---------------------------------------------------------------------

 SCF Done:  E(UB3LYP) =  -1854.57295619     a.u. after    1 cycles

 The electronic state is 2-A.
 Alpha  occ. eigenvalues --  -66.16860 -66.16522 -66.16505 -66.16372 -19.17855
 Alpha  occ. eigenvalues --  -19.13502 -19.13493 -19.13121 -19.13077 -10.18550
 Alpha  occ. eigenvalues --  -10.16843 -10.16821 -10.16719 -10.16645 -10.16578
 Alpha  occ. eigenvalues --  -10.16568 -10.16542  -5.30564  -5.30237  -5.30231
 Alpha  occ. eigenvalues --   -5.30071  -3.66686  -3.66509  -3.66361  -3.66355
 Alpha  occ. eigenvalues --   -3.66336  -3.66206  -3.66183  -3.66174  -3.66010
 Alpha  occ. eigenvalues --   -3.66000  -3.65989  -3.65829  -1.00999  -0.99380
 Alpha  occ. eigenvalues --   -0.98951  -0.98913  -0.96773  -0.72051  -0.71182
 Alpha  occ. eigenvalues --   -0.70924  -0.70443  -0.69192  -0.68817  -0.68728
 Alpha  occ. eigenvalues --   -0.68537  -0.58340  -0.54866  -0.54680  -0.49302
 Alpha  occ. eigenvalues --   -0.47962  -0.43863  -0.43367  -0.43011  -0.42367
 Alpha  occ. eigenvalues --   -0.42149  -0.41881  -0.41668  -0.41427  -0.41192
 Alpha  occ. eigenvalues --   -0.41035  -0.40622  -0.40452  -0.40191  -0.39992
 Alpha  occ. eigenvalues --   -0.39788  -0.39668  -0.39538  -0.39322  -0.38286
 Alpha  occ. eigenvalues --   -0.37895  -0.37447  -0.36866  -0.36753  -0.35051
 Alpha  occ. eigenvalues --   -0.34751  -0.34263  -0.33463  -0.32032  -0.31705
 Alpha  occ. eigenvalues --   -0.31298  -0.30380  -0.28990  -0.28481  -0.27644
 Alpha virt. eigenvalues --   -0.01900  -0.00381  -0.00030   0.00404   0.01586
 Alpha virt. eigenvalues --    0.02301   0.02436   0.03185   0.03646   0.04564
 Alpha virt. eigenvalues --    0.04852   0.05068   0.05142   0.05609   0.05760

  Beta  occ. eigenvalues --  -66.16861 -66.16523 -66.16505 -66.16372 -19.15987
  Beta  occ. eigenvalues --  -19.13505 -19.13449 -19.13121 -19.13077 -10.18003
  Beta  occ. eigenvalues --  -10.16844 -10.16821 -10.16719 -10.16645 -10.16578
  Beta  occ. eigenvalues --  -10.16567 -10.16542  -5.30566  -5.30237  -5.30231
  Beta  occ. eigenvalues --   -5.30071  -3.66686  -3.66512  -3.66361  -3.66355
  Beta  occ. eigenvalues --   -3.66335  -3.66206  -3.66183  -3.66174  -3.66010
  Beta  occ. eigenvalues --   -3.66000  -3.65989  -3.65829  -1.00968  -0.98949
  Beta  occ. eigenvalues --   -0.98900  -0.96754  -0.94383  -0.71714  -0.70922
  Beta  occ. eigenvalues --   -0.70705  -0.70326  -0.68842  -0.68737  -0.68546
  Beta  occ. eigenvalues --   -0.68361  -0.58275  -0.54829  -0.54630  -0.49223
  Beta  occ. eigenvalues --   -0.45079  -0.43404  -0.42921  -0.42244  -0.42134
  Beta  occ. eigenvalues --   -0.41971  -0.41624  -0.41451  -0.41183  -0.41155
  Beta  occ. eigenvalues --   -0.40743  -0.40476  -0.40328  -0.39987  -0.39814
  Beta  occ. eigenvalues --   -0.39668  -0.39542  -0.39320  -0.39068  -0.38221
  Beta  occ. eigenvalues --   -0.37601  -0.37339  -0.36804  -0.36411  -0.34992
  Beta  occ. eigenvalues --   -0.34691  -0.34246  -0.33066  -0.31769  -0.31217
  Beta  occ. eigenvalues --   -0.29866  -0.28961  -0.28812  -0.27719
  Beta virt. eigenvalues --   -0.14993  -0.01870  -0.00339  -0.00001   0.00443
  Beta virt. eigenvalues --    0.01602   0.02338   0.02471   0.03207   0.03760
  Beta virt. eigenvalues --    0.04583   0.04881   0.05090   0.05175   0.05627

 Mulliken charges and spin densities:
               1          2
     1  O    0.245031   0.012126
     2  O    0.214253   0.000347
     3  O    0.213069  -0.000041
     4  O    0.100419  -0.002980
     5  Si  -0.057914  -0.001162
     6  Si  -0.053882  -0.003637
     7  Si  -0.046605   0.004686
     8  Si   0.101201   0.001708
     9  C   -0.628712   0.370335
    10  H    0.183268  -0.005704
    11  H    0.176265  -0.008366
    12  C   -0.604876  -0.000526
    13  H    0.186144   0.000312
    14  H    0.176295   0.000020
    15  H    0.171760  -0.000199
    16  C   -0.636968   0.000039
    17  H    0.175635  -0.000013
    18  H    0.176749  -0.000002
    19  H    0.176122  -0.000006
    20  C   -0.638072  -0.000190
    21  H    0.172090   0.000010
    22  H    0.174667  -0.000010
    23  H    0.171986  -0.000001
    24  C   -0.596480   0.000198
    25  H    0.173693   0.000001
    26  H    0.173229   0.000001
    27  H    0.171063  -0.000000
    28  C   -0.594401   0.000163
    29  H    0.175505   0.000003
    30  H    0.173054   0.000000
    31  H    0.170315  -0.000000
    32  C   -0.619015   0.000185
    33  H    0.169551  -0.000025
    34  H    0.172788  -0.000017
    35  H    0.172952   0.000104
    36  C   -0.588338   0.000229
    37  H    0.174906  -0.000053
    38  H    0.175135   0.000044
    39  H    0.170232   0.000013
    40  O   -0.553481   0.703140
    41  H    0.344030  -0.016139
    42  H    0.387340  -0.054594
 Sum of Mulliken charges =  -0.00000   1.00000

 Dipole moment (field-independent basis, Debye):
    X=             -2.5085    Y=             -0.0187    Z=              1.0030  Tot=              2.7017
 Quadrupole moment (field-independent basis, Debye-Ang):
   XX=           -146.8782   YY=           -127.0371   ZZ=           -136.6496
   XY=             -0.9107   XZ=              7.7298   YZ=             -1.2849

  Exact polarizability: 220.784 -11.574 208.686  -6.550   3.250 197.635
 Approx polarizability: 281.976 -16.203 274.992  -8.373   4.622 268.566

 ******    1 imaginary frequencies (negative Signs) ******

                      1                      2                      3
                      A                      A                      A
 Frequencies --   -480.1420                 7.6635                19.4843
 Red. masses --      1.9306                 3.8370                 5.7352
 Frc consts  --      0.2622                 0.0001                 0.0013
 IR Inten    --    186.2096                 0.3454                 3.3839

                      4                      5                      6
                      A                      A                      A
 Frequencies --     21.6305                27.9030                30.6688
 Red. masses --      3.7112                 4.5804                 3.7441
 Frc consts  --      0.0010                 0.0021                 0.0021
 IR Inten    --      0.2688                 0.6987                 0.1260

                      7                      8                      9
                      A                      A                      A
 Frequencies --     35.1096                58.6432                65.8042
 Red. masses --      3.4181                 4.9001                 5.1197
 Frc consts  --      0.0025                 0.0099                 0.0131
 IR Inten    --      0.4071                 0.6667                 0.8282

                     10                     11                     12
                      A                      A                      A
 Frequencies --    130.6107               142.1384               146.2752
 Red. masses --      3.8443                 1.7204                 1.2048
 Frc consts  --      0.0386                 0.0205                 0.0152
 IR Inten    --      0.1064                 0.2729                 0.0893

                     13                     14                     15
                      A                      A                      A
 Frequencies --    146.9531               153.4795               154.0288
 Red. masses --      1.0211                 1.0486                 1.0415
 Frc consts  --      0.0130                 0.0146                 0.0146
 IR Inten    --      0.0031                 0.0093                 0.6277

                     16                     17                     18
                      A                      A                      A
 Frequencies --    156.2575               158.7291               167.0285
 Red. masses --      1.1107                 1.3780                 1.1905
 Frc consts  --      0.0160                 0.0205                 0.0196
 IR Inten    --      0.0171                 0.2027                 0.0262

                     19                     20                     21
                      A                      A                      A
 Frequencies --    170.2558               171.7203               174.6764
 Red. masses --      1.9048                 1.6481                 2.2521
 Frc consts  --      0.0325                 0.0286                 0.0405
 IR Inten    --      0.1900                 0.0137                 0.0491

                     22                     23                     24
                      A                      A                      A
 Frequencies --    180.3170               187.5373               188.3674
 Red. masses --      2.6035                 2.6118                 2.7544
 Frc consts  --      0.0499                 0.0541                 0.0576
 IR Inten    --      0.1758                 0.0805                 0.5750

                     25                     26                     27
                      A                      A                      A
 Frequencies --    197.2632               202.6157               216.1248
 Red. masses --      2.3776                 2.5202                 1.2525
 Frc consts  --      0.0545                 0.0610                 0.0345
 IR Inten    --      6.7231                 3.8238                38.3944

                     28                     29                     30
                      A                      A                      A
 Frequencies --    245.9472               254.2544               260.5821
 Red. masses --      3.0196                 3.0957                 3.5440
 Frc consts  --      0.1076                 0.1179                 0.1418
 IR Inten    --      0.1112                 0.4575                 1.5239

                     31                     32                     33
                      A                      A                      A
 Frequencies --    268.7139               321.2406               328.5679
 Red. masses --      3.8670                 3.4716                 2.2557
 Frc consts  --      0.1645                 0.2111                 0.1435
 IR Inten    --      4.4996                 0.8419                13.8682

                     34                     35                     36
                      A                      A                      A
 Frequencies --    348.6812               353.4806               359.6532
 Red. masses --      3.3544                 2.8225                 6.3846
 Frc consts  --      0.2403                 0.2078                 0.4866
 IR Inten    --     60.5227                47.7933                75.4727

                     37                     38                     39
                      A                      A                      A
 Frequencies --    375.0576               438.7442               451.9692
 Red. masses --      3.6052                 9.5940                 5.0313
 Frc consts  --      0.2988                 1.0881                 0.6056
 IR Inten    --     79.6648                 0.4288                 0.8211

                     40                     41                     42
                      A                      A                      A
 Frequencies --    524.1130               531.5102               618.9027
 Red. masses --      4.0457                 4.0143                 2.5670
 Frc consts  --      0.6548                 0.6682                 0.5793
 IR Inten    --     22.1056                25.1319                 2.1841

                     43                     44                     45
                      A                      A                      A
 Frequencies --    646.3976               664.6051               684.4483
 Red. masses --      2.8430                 1.7521                 2.2982
 Frc consts  --      0.6999                 0.4560                 0.6343
 IR Inten    --     15.4677                25.1676                25.9462

                     46                     47                     48
                      A                      A                      A
 Frequencies --    688.2849               688.9660               689.3224
 Red. masses --      1.7857                 1.7693                 2.0944
 Frc consts  --      0.4984                 0.4948                 0.5863
 IR Inten    --      9.5173                 4.8417                18.9660

                     49                     50                     51
                      A                      A                      A
 Frequencies --    692.2106               697.0774               707.7268
 Red. masses --      2.0225                 2.0366                 2.7148
 Frc consts  --      0.5710                 0.5831                 0.8011
 IR Inten    --     15.5634                12.8236                 0.4147

                     52                     53                     54
                      A                      A                      A
 Frequencies --    752.8588               754.8144               756.1559
 Red. masses --      1.2644                 1.2806                 1.2841
 Frc consts  --      0.4222                 0.4299                 0.4326
 IR Inten    --      0.0282                 0.1760                 0.0072

                     55                     56                     57
                      A                      A                      A
 Frequencies --    784.8765               795.1702               798.1941
 Red. masses --      2.3336                 2.2861                 1.5877
 Frc consts  --      0.8470                 0.8517                 0.5960
 IR Inten    --     31.5614                10.3469                11.6260

                     58                     59                     60
                      A                      A                      A
 Frequencies --    799.3075               813.3735               825.0757
 Red. masses --      2.4040                 2.6294                 1.4908
 Frc consts  --      0.9049                 1.0249                 0.5979
 IR Inten    --     16.7429               446.7900               143.5828

                     61                     62                     63
                      A                      A                      A
 Frequencies --    833.1454               839.8071               860.2332
 Red. masses --      1.4567                 1.4560                 1.7035
 Frc consts  --      0.5958                 0.6050                 0.7427
 IR Inten    --    216.9506                12.8954                63.5150

                     64                     65                     66
                      A                      A                      A
 Frequencies --    875.7161               880.1333               887.1770
 Red. masses --      1.8764                 1.8707                 2.0385
 Frc consts  --      0.8478                 0.8538                 0.9453
 IR Inten    --     10.0616                 5.6092                 4.9321

                     67                     68                     69
                      A                      A                      A
 Frequencies --    929.1202              1015.5984              1078.8251
 Red. masses --      1.3942                13.6477                11.8326
 Frc consts  --      0.7091                 8.2938                 8.1140
 IR Inten    --     92.4380                10.7336               612.9296

                     70                     71                     72
                      A                      A                      A
 Frequencies --   1098.9776              1101.5091              1168.2801
 Red. masses --     15.0373                15.4734                 1.2845
 Frc consts  --     10.7004                11.0615                 1.0330
 IR Inten    --    925.5638              1115.2371                69.0560

                     73                     74                     75
                      A                      A                      A
 Frequencies --   1286.4947              1287.0611              1287.9480
 Red. masses --      1.2769                 1.2760                 1.2737
 Frc consts  --      1.2451                 1.2454                 1.2448
 IR Inten    --      0.6187                 8.9446                98.9074

                     76                     77                     78
                      A                      A                      A
 Frequencies --   1289.3412              1289.3734              1289.9552
 Red. masses --      1.2556                 1.2478                 1.2468
 Frc consts  --      1.2298                 1.2222                 1.2223
 IR Inten    --     69.5504                25.6947               169.8215

                     79                     80                     81
                      A                      A                      A
 Frequencies --   1291.0301              1295.4903              1388.5758
 Red. masses --      1.2519                 1.1100                 1.1486
 Frc consts  --      1.2294                 1.0976                 1.3048
 IR Inten    --     32.7374               322.5138               297.2945

                     82                     83                     84
                      A                      A                      A
 Frequencies --   1407.2647              1443.6761              1447.1706
 Red. masses --      1.0763                 1.0518                 1.0520
 Frc consts  --      1.2559                 1.2916                 1.2980
 IR Inten    --    132.4538                 1.1665                 0.0223

                     85                     86                     87
                      A                      A                      A
 Frequencies --   1447.5469              1448.3819              1449.9742
 Red. masses --      1.0515                 1.0517                 1.0510
 Frc consts  --      1.2982                 1.2999                 1.3019
 IR Inten    --      1.4296                 0.3185                 1.6030

                     88                     89                     90
                      A                      A                      A
 Frequencies --   1450.6638              1452.5939              1454.1890
 Red. masses --      1.0513                 1.0499                 1.0497
 Frc consts  --      1.3035                 1.3053                 1.3079
 IR Inten    --      2.8644                 1.4872                 1.9615

                     91                     92                     93
                      A                      A                      A
 Frequencies --   1455.4020              1456.9034              1458.1767
 Red. masses --      1.0489                 1.0471                 1.0483
 Frc consts  --      1.3090                 1.3094                 1.3133
 IR Inten    --      3.9857                 8.2979                 3.4980

                     94                     95                     96
                      A                      A                      A
 Frequencies --   1459.3153              1460.8893              1461.9443
 Red. masses --      1.0483                 1.0467                 1.0467
 Frc consts  --      1.3153                 1.3162                 1.3181
 IR Inten    --      0.4110                15.2737                 2.9761

                     97                     98                     99
                      A                      A                      A
 Frequencies --   3023.1660              3024.0389              3024.4245
 Red. masses --      1.0352                 1.0352                 1.0351
 Frc consts  --      5.5743                 5.5775                 5.5786
 IR Inten    --      4.9750                 1.3029                12.1178

                    100                    101                    102
                      A                      A                      A
 Frequencies --   3025.8660              3026.4968              3027.1688
 Red. masses --      1.0351                 1.0350                 1.0349
 Frc consts  --      5.5838                 5.5854                 5.5878
 IR Inten    --      3.3417                 3.6215                 3.7207

                    103                    104                    105
                      A                      A                      A
 Frequencies --   3028.1059              3066.6299              3099.6005
 Red. masses --      1.0349                 1.0561                 1.0996
 Frc consts  --      5.5912                 5.8515                 6.2241
 IR Inten    --      4.2379                 6.0688                11.4402

                    106                    107                    108
                      A                      A                      A
 Frequencies --   3100.0233              3100.4339              3100.6846
 Red. masses --      1.0997                 1.0997                 1.0996
 Frc consts  --      6.2268                 6.2284                 6.2287
 IR Inten    --      3.8403                 2.8165                 3.7088

                    109                    110                    111
                      A                      A                      A
 Frequencies --   3101.0749              3102.6504              3102.8592
 Red. masses --      1.0996                 1.0996                 1.0996
 Frc consts  --      6.2303                 6.2366                 6.2372
 IR Inten    --     11.8766                15.2767                21.2685

                    112                    113                    114
                      A                      A                      A
 Frequencies --   3103.6378              3103.8869              3104.0021
 Red. masses --      1.0995                 1.0996                 1.0995
 Frc consts  --      6.2400                 6.2419                 6.2415
 IR Inten    --     11.4382                25.3118                16.6617

                    115                    116                    117
                      A                      A                      A
 Frequencies --   3104.4410              3104.6912              3105.4701
 Red. masses --      1.0994                 1.0995                 1.0997
 Frc consts  --      6.2429                 6.2440                 6.2485
 IR Inten    --     21.9970                10.1260                14.4370

                    118                    119                    120
                      A                      A                      A
 Frequencies --   3109.3608              3134.2462              3726.2644
 Red. masses --      1.1000                 1.1036                 1.0670
 Frc consts  --      6.2660                 6.3877                 8.7286
 IR Inten    --      7.9224                 6.9233                33.2878

 - Thermochemistry -
 -------------------
 Temperature   298.150 Kelvin.  Pressure   1.00000 Atm.
 Atom     1 has atomic number  8 and mass  15.99491

 Molecular mass:   313.07791 amu.
 Principal axes and moments of inertia in atomic units:
                           1         2         3
     Eigenvalues --  5171.487836479.200978842.71060
           X            0.99996  -0.00244   0.00824
           Y            0.00250   0.99997  -0.00778
           Z           -0.00822   0.00780   0.99994
 This molecule is an asymmetric top.
 Rotational symmetry number  1.
 Warning -- assumption of classical behavior for rotation
           may cause significant error
 Rotational temperatures (Kelvin)      0.01675     0.01337     0.00979
 Rotational constants (GHZ):           0.34898     0.27854     0.20409
    1 imaginary frequencies ignored.
 Zero-point vibrational energy     848204.3 (Joules/Mol)
                                  202.72568 (Kcal/Mol)
 Warning -- explicit consideration of  41 degrees of freedom as
           vibrations may cause significant error
 Vibrational temperatures:     11.03    28.03    31.12    40.15    44.13
          (Kelvin)             50.51    84.37    94.68   187.92   204.51
                              210.46   211.43   220.82   221.61   224.82
                              228.38   240.32   244.96   247.07   251.32
                              259.44   269.82   271.02   283.82   291.52
                              310.96   353.86   365.82   374.92   386.62
                              462.19   472.74   501.67   508.58   517.46
                              539.62   631.26   650.28   754.08   764.72
                              890.46   930.02   956.22   984.77   990.29
                              991.27   991.78   995.94  1002.94  1018.26
                             1083.20  1086.01  1087.94  1129.26  1144.07
                             1148.42  1150.03  1170.26  1187.10  1198.71
                             1208.30  1237.68  1259.96  1266.32  1276.45
                             1336.80  1461.22  1552.19  1581.18  1584.83
                             1680.89  1850.98  1851.79  1853.07  1855.07
                             1855.12  1855.96  1857.50  1863.92  1997.85
                             2024.74  2077.13  2082.16  2082.70  2083.90
                             2086.19  2087.18  2089.96  2092.25  2094.00
                             2096.16  2097.99  2099.63  2101.89  2103.41
                             4349.66  4350.92  4351.47  4353.55  4354.45
                             4355.42  4356.77  4412.20  4459.63  4460.24
                             4460.83  4461.19  4461.76  4464.02  4464.32
                             4465.44  4465.80  4465.97  4466.60  4466.96
                             4468.08  4473.68  4509.48  5361.26

 Zero-point correction=                           0.323064 (Hartree/Particle)
 Thermal correction to Energy=                    0.351619
 Thermal correction to Enthalpy=                  0.352563
 Thermal correction to Gibbs Free Energy=         0.260168
 Sum of electronic and zero-point Energies=          -1854.249892
 Sum of electronic and thermal Energies=             -1854.221337
 Sum of electronic and thermal Enthalpies=           -1854.220393
 Sum of electronic and thermal Free Energies=        -1854.312788

                     E (Thermal)             CV                S
                      KCal/Mol        Cal/Mol-Kelvin    Cal/Mol-Kelvin
 Total                  220.644             99.930            194.462
 Electronic               0.000              0.000              1.377
 Translational            0.889              2.981             43.120
 Rotational               0.889              2.981             34.049
 Vibrational            218.867             93.969            115.916
 Vibration     1          0.593              1.987              8.540
 Vibration     2          0.593              1.986              6.686
 Vibration     3          0.593              1.985              6.479
 Vibration     4          0.593              1.984              5.973
 Vibration     5          0.594              1.984              5.786
 Vibration     6          0.594              1.982              5.518
 Vibration     7          0.596              1.974              4.502
 Vibration     8          0.597              1.971              4.275
 Vibration     9          0.612              1.923              2.937
 Vibration    10          0.616              1.911              2.775
 Vibration    11          0.617              1.907              2.720
 Vibration    12          0.617              1.906              2.711
 Vibration    13          0.619              1.899              2.629
 Vibration    14          0.620              1.898              2.622
 Vibration    15          0.620              1.896              2.595
 Vibration    16          0.621              1.893              2.565
 Vibration    17          0.624              1.883              2.469
 Vibration    18          0.625              1.879              2.433
 Vibration    19          0.626              1.877              2.417
 Vibration    20          0.627              1.874              2.385
 Vibration    21          0.629              1.866              2.325
 Vibration    22          0.632              1.857              2.252
 Vibration    23          0.633              1.856              2.244
 Vibration    24          0.637              1.844              2.158
 Vibration    25          0.639              1.836              2.109
 Vibration    26          0.645              1.816              1.991
 Vibration    27          0.660              1.769              1.759
 Vibration    28          0.665              1.756              1.701
 Vibration    29          0.669              1.745              1.658
 Vibration    30          0.673              1.731              1.604
 Vibration    31          0.707              1.633              1.304
 Vibration    32          0.712              1.618              1.267
 Vibration    33          0.726              1.578              1.172
 Vibration    34          0.730              1.568              1.151
 Vibration    35          0.734              1.555              1.124
 Vibration    36          0.746              1.523              1.059
 Vibration    37          0.799              1.386              0.831
 Vibration    38          0.811              1.357              0.790
 Vibration    39          0.879              1.197              0.600
 Vibration    40          0.886              1.180              0.584
 Vibration    41          0.979              0.992              0.418

 Optimization completed on the basis of negligible forces.
    -- Stationary point found.
 Normal termination of Gaussian 16 at Fri May 28 14:13:19 2021.
