 Gaussian 16, Revision A.03,
 Gaussian 16:  ES64L-G16RevA.03 25-Dec-2016

 ---------------------------------------------------------------------
 # opt=(calcfc,noeigentest) freq b3lyp/6-31+g(2df,p) geom=connectivity
 ---------------------------------------------------------------------

 --
 D4
 --
 Symbolic Z-matrix:
 Charge =  0 Multiplicity = 2

 SCF Done:  E(UB3LYP) =  -1778.14504967     A.U. after   14 cycles
 SCF Done:  E(UB3LYP) =  -1778.15347050     A.U. after   12 cycles
 SCF Done:  E(UB3LYP) =  -1778.15701858     A.U. after   13 cycles
 SCF Done:  E(UB3LYP) =  -1778.15734638     A.U. after   11 cycles
 SCF Done:  E(UB3LYP) =  -1778.15740002     A.U. after   12 cycles
 SCF Done:  E(UB3LYP) =  -1778.15742082     A.U. after   10 cycles
 SCF Done:  E(UB3LYP) =  -1778.15744344     A.U. after   11 cycles
 SCF Done:  E(UB3LYP) =  -1778.15738442     A.U. after   11 cycles
 SCF Done:  E(UB3LYP) =  -1778.15749204     A.U. after   11 cycles
 SCF Done:  E(UB3LYP) =  -1778.15751455     A.U. after   12 cycles
 SCF Done:  E(UB3LYP) =  -1778.15765208     A.U. after   11 cycles
 SCF Done:  E(UB3LYP) =  -1778.15772931     A.U. after    8 cycles
 SCF Done:  E(UB3LYP) =  -1778.15759838     A.U. after   12 cycles
 SCF Done:  E(UB3LYP) =  -1778.15772828     A.U. after   11 cycles
 SCF Done:  E(UB3LYP) =  -1778.15772340     A.U. after   10 cycles
 SCF Done:  E(UB3LYP) =  -1778.15772903     A.U. after    9 cycles
 SCF Done:  E(UB3LYP) =  -1778.15772931     A.U. after    9 cycles
 SCF Done:  E(UB3LYP) =  -1778.15772974     A.U. after    9 cycles
 SCF Done:  E(UB3LYP) =  -1778.15772978     A.U. after    7 cycles
 Optimization completed.
    -- Stationary point found.
 Normal termination of Gaussian 16 at Wed Jun 30 00:15:39 2021.

 ----------------------------------------------------------------------
 #N Geom=AllCheck Guess=TCheck SCRF=Check GenChk UB3LYP/6-31+G(2df,p) F
 req
 ----------------------------------------------------------------------

 Structure from the checkpoint file:  "/scratch/summit/mial5369/7714438/Gau-81060.chk"
 --
 D4
 --
 Charge =  0 Multiplicity = 2

                         Standard orientation:
 ---------------------------------------------------------------------
 Center     Atomic      Atomic             Coordinates (Angstroms)
 Number     Number       Type             X           Y           Z
 ---------------------------------------------------------------------
      1          8           0        1.343292   -1.319843   -0.280018
      2          8           0       -1.340819   -1.324827   -0.276780
      3          8           0       -1.349170    1.296107    0.322272
      4          8           0        1.345689    1.300362    0.322062
      5         14           0        2.276311    0.019360   -0.118171
      6         14           0       -2.276642    0.012748   -0.117767
      7         14           0        0.003260   -2.207336    0.051435
      8         14           0       -0.003205    2.219238    0.171151
      9          6           0        3.532107   -0.255348    1.236436
     10          1           0        4.176642   -1.111908    1.009504
     11          1           0        3.036137   -0.449520    2.193717
     12          6           0        3.084185    0.359969   -1.767971
     13          1           0        3.722090    1.249764   -1.721586
     14          1           0        3.707167   -0.486163   -2.078977
     15          1           0        2.329320    0.523701   -2.544838
     16          6           0       -0.004583    3.028104   -1.492027
     17          1           0        0.908317    3.314596   -2.010673
     18          1           0       -0.918486    3.311817   -2.010443
     19          6           0       -0.005085    3.457175    1.566721
     20          1           0        0.880624    4.100083    1.524949
     21          1           0       -0.892776    4.097348    1.524991
     22          1           0       -0.004266    2.938224    2.532189
     23          6           0       -3.083294    0.350037   -1.768863
     24          1           0       -3.704004   -0.497782   -2.079818
     25          1           0       -3.723269    1.238427   -1.724040
     26          1           0       -2.327912    0.514795   -2.545009
     27          6           0       -3.533450   -0.263218    1.235624
     28          1           0       -4.175032    0.616290    1.360187
     29          1           0       -4.175832   -1.121434    1.008845
     30          1           0       -3.038152   -0.455307    2.193673
     31          6           0        0.004736   -3.690805   -1.079431
     32          1           0        0.003155   -3.373062   -2.127751
     33          1           0        0.892714   -4.311404   -0.915886
     34          1           0       -0.880751   -4.314490   -0.914138
     35          6           0        0.006133   -2.694167    1.858341
     36          1           0       -0.878313   -3.291931    2.106092
     37          1           0        0.893325   -3.288605    2.104262
     38          1           0        0.005111   -1.809884    2.505746
     39          1           0        4.171613    0.625433    1.362671
 ---------------------------------------------------------------------

 SCF Done:  E(UB3LYP) =  -1778.15772978     A.U. after    2 cycles

 The electronic state is 2-A.
 Alpha  occ. eigenvalues --  -66.16200 -66.15861 -66.15861 -66.15785 -19.12697
 Alpha  occ. eigenvalues --  -19.12697 -19.12484 -19.12483 -10.19133 -10.16230
 Alpha  occ. eigenvalues --  -10.16151 -10.16150 -10.16150 -10.16126 -10.16124
 Alpha  occ. eigenvalues --  -10.15985  -5.29880  -5.29570  -5.29570  -5.29512
 Alpha  occ. eigenvalues --   -3.66004  -3.65834  -3.65702  -3.65702  -3.65650
 Alpha  occ. eigenvalues --   -3.65632  -3.65509  -3.65509  -3.65457  -3.65332
 Alpha  occ. eigenvalues --   -3.65332  -3.65276  -1.00297  -0.98291  -0.98250
 Alpha  occ. eigenvalues --   -0.96114  -0.71129  -0.70300  -0.70158  -0.69707
 Alpha  occ. eigenvalues --   -0.68236  -0.68151  -0.68070  -0.67573  -0.57618
 Alpha  occ. eigenvalues --   -0.54189  -0.53999  -0.48586  -0.43002  -0.42392
 Alpha  occ. eigenvalues --   -0.42363  -0.41675  -0.41408  -0.41142  -0.40937
 Alpha  occ. eigenvalues --   -0.40519  -0.40479  -0.40267  -0.39888  -0.39643
 Alpha  occ. eigenvalues --   -0.39511  -0.39276  -0.39208  -0.39087  -0.38841
 Alpha  occ. eigenvalues --   -0.37735  -0.37376  -0.37115  -0.36236  -0.36165
 Alpha  occ. eigenvalues --   -0.34585  -0.34239  -0.33851  -0.32412  -0.31143
 Alpha  occ. eigenvalues --   -0.30935  -0.29010  -0.28125  -0.27250  -0.23893
 Alpha virt. eigenvalues --   -0.01402   0.00126   0.00200   0.00950   0.01916
 Alpha virt. eigenvalues --    0.02524   0.02685   0.03802   0.04411   0.04733
 Alpha virt. eigenvalues --    0.05300   0.05431   0.05792   0.05899   0.06233

  Beta  occ. eigenvalues --  -66.16214 -66.15861 -66.15861 -66.15785 -19.12674
  Beta  occ. eigenvalues --  -19.12674 -19.12484 -19.12483 -10.17888 -10.16230
  Beta  occ. eigenvalues --  -10.16148 -10.16148 -10.16125 -10.16123 -10.16112
  Beta  occ. eigenvalues --  -10.15985  -5.29895  -5.29571  -5.29570  -5.29512
  Beta  occ. eigenvalues --   -3.66016  -3.65851  -3.65702  -3.65702  -3.65668
  Beta  occ. eigenvalues --   -3.65632  -3.65510  -3.65509  -3.65457  -3.65333
  Beta  occ. eigenvalues --   -3.65332  -3.65276  -1.00267  -0.98263  -0.98222
  Beta  occ. eigenvalues --   -0.96088  -0.71053  -0.70295  -0.70028  -0.69323
  Beta  occ. eigenvalues --   -0.68221  -0.68147  -0.68059  -0.64456  -0.57501
  Beta  occ. eigenvalues --   -0.54092  -0.53985  -0.48561  -0.42740  -0.42316
  Beta  occ. eigenvalues --   -0.41761  -0.41566  -0.41398  -0.41104  -0.40876
  Beta  occ. eigenvalues --   -0.40483  -0.40466  -0.40214  -0.39863  -0.39525
  Beta  occ. eigenvalues --   -0.39468  -0.39221  -0.39187  -0.39086  -0.38779
  Beta  occ. eigenvalues --   -0.37647  -0.37190  -0.37098  -0.36134  -0.36112
  Beta  occ. eigenvalues --   -0.34379  -0.34193  -0.33758  -0.32397  -0.31115
  Beta  occ. eigenvalues --   -0.30660  -0.28684  -0.28110  -0.27163
  Beta virt. eigenvalues --   -0.09404  -0.01363   0.00124   0.00271   0.01013
  Beta virt. eigenvalues --    0.01983   0.02521   0.02736   0.03907   0.04410
  Beta virt. eigenvalues --    0.04768   0.05302   0.05432   0.05791   0.05934

 Mulliken charges and spin densities:
               1          2
     1  O    0.200364   0.000694
     2  O    0.201211   0.000697
     3  O    0.143628  -0.012701
     4  O    0.143657  -0.012699
     5  Si  -0.044302   0.008637
     6  Si  -0.044512   0.008606
     7  Si   0.081102  -0.009831
     8  Si   0.130533   0.005111
     9  C   -0.595017  -0.000886
    10  H    0.172121   0.000083
    11  H    0.170942   0.000002
    12  C   -0.615070   0.005030
    13  H    0.171489  -0.000004
    14  H    0.174012   0.000200
    15  H    0.174283  -0.000648
    16  C   -0.448377   1.046036
    17  H    0.164461  -0.034443
    18  H    0.164457  -0.034443
    19  C   -0.634044   0.018700
    20  H    0.171812  -0.000336
    21  H    0.171809  -0.000336
    22  H    0.169742   0.007801
    23  C   -0.614952   0.005025
    24  H    0.174014   0.000202
    25  H    0.171483  -0.000004
    26  H    0.174301  -0.000649
    27  C   -0.595231  -0.000882
    28  H    0.173191   0.000001
    29  H    0.172136   0.000083
    30  H    0.170923   0.000002
    31  C   -0.620657   0.000183
    32  H    0.169787  -0.000003
    33  H    0.171029  -0.000001
    34  H    0.171039  -0.000001
    35  C   -0.636055   0.000764
    36  H    0.173906   0.000002
    37  H    0.173926   0.000002
    38  H    0.173654   0.000005
    39  H    0.173205   0.000001
 Sum of Mulliken charges =  -0.00000   1.00000

 Dipole moment (field-independent basis, Debye):
    X=              0.0010    Y=              0.0823    Z=             -0.1132  Tot=              0.1400
 Quadrupole moment (field-independent basis, Debye-Ang):
   XX=           -123.7852   YY=           -124.9744   ZZ=           -128.2392
   XY=             -0.0035   XZ=              0.0079   YZ=             -2.4078

  Exact polarizability: 195.631   0.002 194.080   0.005  -1.853 190.044
 Approx polarizability: 250.719   0.004 248.843   0.003  -1.570 259.347

                      1                      2                      3
                      A                      A                      A
 Frequencies --     11.9020                17.8621                29.2662
 Red. masses --      3.5198                 3.8101                 3.5440
 Frc consts  --      0.0003                 0.0007                 0.0018
 IR Inten    --      0.0710                 0.1434                 0.4692

                      4                      5                      6
                      A                      A                      A
 Frequencies --     33.6694                41.5238                65.4433
 Red. masses --      3.5543                 3.7146                 4.4374
 Frc consts  --      0.0024                 0.0038                 0.0112
 IR Inten    --      0.0610                 0.4094                 0.0134

                      7                      8                      9
                      A                      A                      A
 Frequencies --     81.3063               131.7474               146.0357
 Red. masses --      1.1004                 3.8730                 1.3129
 Frc consts  --      0.0043                 0.0396                 0.0165
 IR Inten    --      0.0113                 0.0260                 0.0438

                     10                     11                     12
                      A                      A                      A
 Frequencies --    147.7693               147.8337               149.0400
 Red. masses --      1.0317                 1.0415                 1.4850
 Frc consts  --      0.0133                 0.0134                 0.0194
 IR Inten    --      0.0017                 0.0024                 0.0911

                     13                     14                     15
                      A                      A                      A
 Frequencies --    156.2456               157.5939               163.0125
 Red. masses --      1.0555                 1.1488                 1.0974
 Frc consts  --      0.0152                 0.0168                 0.0172
 IR Inten    --      0.0001                 0.0331                 0.0011

                     16                     17                     18
                      A                      A                      A
 Frequencies --    165.0890               172.5380               172.6978
 Red. masses --      1.1753                 1.6922                 2.3665
 Frc consts  --      0.0189                 0.0297                 0.0416
 IR Inten    --      0.0014                 0.0144                 0.0466

                     19                     20                     21
                      A                      A                      A
 Frequencies --    177.2437               182.4493               191.3386
 Red. masses --      2.1614                 2.9901                 2.8504
 Frc consts  --      0.0400                 0.0586                 0.0615
 IR Inten    --      0.1389                 0.0014                 0.0587

                     22                     23                     24
                      A                      A                      A
 Frequencies --    191.5605               200.3732               202.6695
 Red. masses --      2.7271                 2.8587                 2.7301
 Frc consts  --      0.0590                 0.0676                 0.0661
 IR Inten    --      0.1594                 0.3803                 0.6101

                     25                     26                     27
                      A                      A                      A
 Frequencies --    248.9442               254.8299               264.0938
 Red. masses --      3.1716                 2.8983                 3.7075
 Frc consts  --      0.1158                 0.1109                 0.1524
 IR Inten    --      0.2447                 0.0855                 0.1127

                     28                     29                     30
                      A                      A                      A
 Frequencies --    270.2477               324.2461               339.7752
 Red. masses --      3.8509                 4.7873                 4.1300
 Frc consts  --      0.1657                 0.2965                 0.2809
 IR Inten    --      4.8807                 3.8288                 2.3550

                     31                     32                     33
                      A                      A                      A
 Frequencies --    352.5755               357.6436               373.2293
 Red. masses --      6.9021                 7.5798                 4.2944
 Frc consts  --      0.5055                 0.5712                 0.3525
 IR Inten    --     78.1453                80.7178                81.0525

                     34                     35                     36
                      A                      A                      A
 Frequencies --    440.8553               454.4085               525.4022
 Red. masses --     10.4803                 4.9413                 4.0510
 Frc consts  --      1.2001                 0.6012                 0.6589
 IR Inten    --      0.9011                 0.4000                16.8045

                     37                     38                     39
                      A                      A                      A
 Frequencies --    532.7892               589.0105               618.0605
 Red. masses --      4.1051                 1.4562                 2.7147
 Frc consts  --      0.6866                 0.2977                 0.6110
 IR Inten    --     27.8360                44.2581                 0.7028

                     40                     41                     42
                      A                      A                      A
 Frequencies --    654.0925               685.3097               686.6068
 Red. masses --      3.5521                 2.6361                 1.8288
 Frc consts  --      0.8954                 0.7294                 0.5080
 IR Inten    --      4.6373                41.3563                 2.5779

                     43                     44                     45
                      A                      A                      A
 Frequencies --    688.9550               689.3681               695.6569
 Red. masses --      1.7682                 1.7536                 2.5957
 Frc consts  --      0.4945                 0.4910                 0.7401
 IR Inten    --      5.0581                 9.5533                33.5339

                     46                     47                     48
                      A                      A                      A
 Frequencies --    713.7534               714.0780               751.9761
 Red. masses --      2.5683                 1.3634                 3.0693
 Frc consts  --      0.7709                 0.4096                 1.0226
 IR Inten    --      5.9536                 0.0930                74.4364

                     49                     50                     51
                      A                      A                      A
 Frequencies --    753.4480               754.4520               756.0360
 Red. masses --      1.2654                 1.2757                 1.2848
 Frc consts  --      0.4232                 0.4278                 0.4327
 IR Inten    --      0.0011                 0.8555                 0.0010

                     52                     53                     54
                      A                      A                      A
 Frequencies --    793.4882               798.5272               804.8298
 Red. masses --      2.5111                 2.4865                 1.4850
 Frc consts  --      0.9315                 0.9341                 0.5667
 IR Inten    --     12.5729                 3.7995                 0.9992

                     55                     56                     57
                      A                      A                      A
 Frequencies --    807.8522               827.2338               830.8171
 Red. masses --      2.5229                 1.9715                 1.4807
 Frc consts  --      0.9701                 0.7949                 0.6022
 IR Inten    --    229.0050               240.0432               195.5673

                     58                     59                     60
                      A                      A                      A
 Frequencies --    838.7022               867.3805               874.0842
 Red. masses --      1.4849                 1.9428                 1.9160
 Frc consts  --      0.6154                 0.8612                 0.8625
 IR Inten    --     74.1253                59.0706                30.2949

                     61                     62                     63
                      A                      A                      A
 Frequencies --    879.2241               891.2646              1019.6654
 Red. masses --      1.8822                 2.1643                14.4564
 Frc consts  --      0.8573                 1.0129                 8.8557
 IR Inten    --     11.1117                 0.0042                 0.0026

                     64                     65                     66
                      A                      A                      A
 Frequencies --   1090.2565              1098.7614              1099.4186
 Red. masses --     14.3900                16.1861                15.9512
 Frc consts  --     10.0779                11.5133                11.3597
 IR Inten    --    116.8162              1398.0951              1221.3436

                     67                     68                     69
                      A                      A                      A
 Frequencies --   1283.3831              1285.4515              1285.8972
 Red. masses --      1.2634                 1.2773                 1.2766
 Frc consts  --      1.2260                 1.2435                 1.2437
 IR Inten    --     40.5396                 3.5087                 0.0897

                     70                     71                     72
                      A                      A                      A
 Frequencies --   1286.6156              1288.3493              1288.3897
 Red. masses --      1.2753                 1.2534                 1.2601
 Frc consts  --      1.2438                 1.2258                 1.2324
 IR Inten    --    148.8509                98.9701                37.9023

                     73                     74                     75
                      A                      A                      A
 Frequencies --   1289.5403              1393.9292              1444.9694
 Red. masses --      1.2508                 1.1431                 1.0518
 Frc consts  --      1.2255                 1.3086                 1.2939
 IR Inten    --     13.9513                15.9056                 0.0193

                     76                     77                     78
                      A                      A                      A
 Frequencies --   1446.4169              1447.8010              1448.8131
 Red. masses --      1.0520                 1.0523                 1.0502
 Frc consts  --      1.2968                 1.2996                 1.2988
 IR Inten    --      0.2334                 0.0534                 1.7961

                     79                     80                     81
                      A                      A                      A
 Frequencies --   1449.2962              1449.6079              1450.2092
 Red. masses --      1.0517                 1.0513                 1.0514
 Frc consts  --      1.3016                 1.3016                 1.3028
 IR Inten    --      0.1371                 2.4307                 2.8359

                     82                     83                     84
                      A                      A                      A
 Frequencies --   1451.2483              1455.9651              1456.6099
 Red. masses --      1.0507                 1.0487                 1.0485
 Frc consts  --      1.3038                 1.3098                 1.3107
 IR Inten    --      3.7595                 4.8874                 3.6028

                     85                     86                     87
                      A                      A                      A
 Frequencies --   1458.2592              1458.4603              1460.5399
 Red. masses --      1.0482                 1.0467                 1.0471
 Frc consts  --      1.3133                 1.3118                 1.3160
 IR Inten    --      4.8429                 3.8770                 8.4675

                     88                     89                     90
                      A                      A                      A
 Frequencies --   1461.5783              3022.5161              3023.8145
 Red. masses --      1.0469                 1.0351                 1.0350
 Frc consts  --      1.3176                 5.5714                 5.5759
 IR Inten    --      6.0242                 5.0602                 0.2301

                     91                     92                     93
                      A                      A                      A
 Frequencies --   3023.8461              3025.1356              3026.0566
 Red. masses --      1.0350                 1.0347                 1.0349
 Frc consts  --      5.5760                 5.5788                 5.5835
 IR Inten    --     13.9920                 6.0678                 8.6037

                     94                     95                     96
                      A                      A                      A
 Frequencies --   3026.0877              3026.5326              3098.9149
 Red. masses --      1.0349                 1.0349                 1.0996
 Frc consts  --      5.5835                 5.5851                 6.2215
 IR Inten    --      0.7375                 4.2936                14.5138

                     97                     98                     99
                      A                      A                      A
 Frequencies --   3099.1920              3099.8126              3099.8285
 Red. masses --      1.0997                 1.0997                 1.0997
 Frc consts  --      6.2232                 6.2257                 6.2257
 IR Inten    --      5.8134                 1.1106                 0.2916

                    100                    101                    102
                      A                      A                      A
 Frequencies --   3101.9856              3102.6903              3102.9762
 Red. masses --      1.0995                 1.0996                 1.0993
 Frc consts  --      6.2336                 6.2365                 6.2364
 IR Inten    --      9.0527                 3.2553                52.6898

                    103                    104                    105
                      A                      A                      A
 Frequencies --   3103.0955              3103.2246              3103.5718
 Red. masses --      1.0998                 1.0997                 1.0994
 Frc consts  --      6.2393                 6.2396                 6.2395
 IR Inten    --     11.2616                 6.4402                37.0600

                    106                    107                    108
                      A                      A                      A
 Frequencies --   3103.7489              3103.8240              3105.2366
 Red. masses --      1.0996                 1.0996                 1.0997
 Frc consts  --      6.2411                 6.2414                 6.2476
 IR Inten    --     12.6020                 8.3721                12.8719

                    109                    110                    111
                      A                      A                      A
 Frequencies --   3107.2387              3118.8231              3207.8485
 Red. masses --      1.0998                 1.0542                 1.1115
 Frc consts  --      6.2564                 6.0416                 6.7391
 IR Inten    --     12.9473                 5.2274                 6.9299

 - Thermochemistry -
 -------------------
 Temperature   298.150 Kelvin.  Pressure   1.00000 Atm.
 Atom     1 has atomic number  8 and mass  15.99491

 Molecular mass:   295.06735 amu.
 Principal axes and moments of inertia in atomic units:
                           1         2         3
     Eigenvalues --  4835.503465035.449607622.53152
           X            1.00000  -0.00016   0.00003
           Y            0.00016   0.99998  -0.00565
           Z           -0.00003   0.00565   0.99998
 This molecule is an asymmetric top.
 Rotational symmetry number  1.
 Warning -- assumption of classical behavior for rotation
           may cause significant error
 Rotational temperatures (Kelvin)      0.01791     0.01720     0.01136
 Rotational constants (GHZ):           0.37323     0.35841     0.23676
 Zero-point vibrational energy     794469.3 (Joules/Mol)
                                  189.88272 (Kcal/Mol)
 Warning -- explicit consideration of  39 degrees of freedom as
           vibrations may cause significant error
 Vibrational temperatures:     17.12    25.70    42.11    48.44    59.74
          (Kelvin)             94.16   116.98   189.56   210.11   212.61
                              212.70   214.44   224.80   226.74   234.54
                              237.53   248.24   248.47   255.01   262.50
                              275.29   275.61   288.29   291.60   358.18
                              366.64   379.97   388.83   466.52   488.86
                              507.28   514.57   536.99   634.29   653.79
                              755.94   766.56   847.45   889.25   941.09
                              986.01   987.87   991.25   991.85  1000.90
                             1026.93  1027.40  1081.93  1084.04  1085.49
                             1087.77  1141.65  1148.90  1157.97  1162.32
                             1190.20  1195.36  1206.71  1247.97  1257.61
                             1265.01  1282.33  1467.07  1568.64  1580.87
                             1581.82  1846.50  1849.48  1850.12  1851.15
                             1853.65  1853.71  1855.36  2005.55  2078.99
                             2081.07  2083.06  2084.52  2085.21  2085.66
                             2086.53  2088.02  2094.81  2095.74  2098.11
                             2098.40  2101.39  2102.89  4348.73  4350.59
                             4350.64  4352.50  4353.82  4353.87  4354.51
                             4458.65  4459.05  4459.94  4459.96  4463.07
                             4464.08  4464.49  4464.66  4464.85  4465.35
                             4465.60  4465.71  4467.74  4470.62  4487.29
                             4615.38

 Zero-point correction=                           0.302597 (Hartree/Particle)
 Thermal correction to Energy=                    0.329157
 Thermal correction to Enthalpy=                  0.330102
 Thermal correction to Gibbs Free Energy=         0.243773
 Sum of electronic and zero-point Energies=          -1777.855132
 Sum of electronic and thermal Energies=             -1777.828572
 Sum of electronic and thermal Enthalpies=           -1777.827628
 Sum of electronic and thermal Free Energies=        -1777.913957

                     E (Thermal)             CV                S
                      KCal/Mol        Cal/Mol-Kelvin    Cal/Mol-Kelvin
 Total                  206.549             93.649            181.694
 Electronic               0.000              0.000              1.377
 Translational            0.889              2.981             42.943
 Rotational               0.889              2.981             33.584
 Vibrational            204.772             87.687            103.789
 Vibration     1          0.593              1.987              7.665
 Vibration     2          0.593              1.986              6.859
 Vibration     3          0.593              1.984              5.879
 Vibration     4          0.594              1.983              5.601
 Vibration     5          0.594              1.981              5.185
 Vibration     6          0.597              1.971              4.286
 Vibration     7          0.600              1.962              3.859
 Vibration     8          0.612              1.922              2.920
 Vibration     9          0.617              1.907              2.723
 Vibration    10          0.617              1.905              2.701
 Vibration    11          0.617              1.905              2.700
 Vibration    12          0.618              1.904              2.684
 Vibration    13          0.620              1.896              2.595
 Vibration    14          0.621              1.894              2.578
 Vibration    15          0.623              1.888              2.515
 Vibration    16          0.623              1.885              2.491
 Vibration    17          0.626              1.876              2.408
 Vibration    18          0.626              1.876              2.406
 Vibration    19          0.628              1.870              2.357
 Vibration    20          0.630              1.864              2.303
 Vibration    21          0.634              1.852              2.215
 Vibration    22          0.634              1.852              2.213
 Vibration    23          0.638              1.839              2.130
 Vibration    24          0.639              1.836              2.109
 Vibration    25          0.662              1.765              1.738
 Vibration    26          0.665              1.755              1.697
 Vibration    27          0.671              1.739              1.635
 Vibration    28          0.674              1.728              1.595
 Vibration    29          0.709              1.627              1.289
 Vibration    30          0.720              1.596              1.213
 Vibration    31          0.729              1.570              1.155
 Vibration    32          0.733              1.560              1.132
 Vibration    33          0.745              1.527              1.066
 Vibration    34          0.801              1.381              0.824
 Vibration    35          0.813              1.351              0.783
 Vibration    36          0.880              1.194              0.598
 Vibration    37          0.888              1.177              0.581
 Vibration    38          0.946              1.055              0.469
 Vibration    39          0.978              0.994              0.420

                           ! Non-Optimized Parameters !
 Normal termination of Gaussian 16 at Wed Jun 30 02:01:34 2021.
