 Gaussian 16, Revision A.03,
 Gaussian 16:  ES64L-G16RevA.03 25-Dec-2016

 ----------------------------------------------------------------------
 # opt=(calcfc,verytight,maxcyc=400) freq cbs-qb3 nosymm geom=connectiv
 ity ccsd=maxcyc=1000 iop(7/33=1)
 ----------------------------------------------------------------------

 -------------------
 Title Card Required
 -------------------
 Symbolic Z-matrix:
 Charge =  0 Multiplicity = 1

 SCF Done:  E(RB3LYP) =  -79.8534630280     A.U. after    9 cycles
 SCF Done:  E(RB3LYP) =  -79.8562471761     A.U. after    8 cycles
 SCF Done:  E(RB3LYP) =  -79.8562628634     A.U. after    6 cycles
 SCF Done:  E(RB3LYP) =  -79.8562628983     A.U. after    5 cycles
 SCF Done:  E(RB3LYP) =  -79.8562628984     A.U. after    3 cycles
 Optimization completed.
    -- Stationary point found.
 Normal termination of Gaussian 16 at Mon Mar 19 08:41:53 2018.

 --------------------------------------------------------------
 #N Geom=AllCheck Guess=TCheck SCRF=Check Test B3LYP/CBSB7 Freq
 --------------------------------------------------------------

 Structure from the checkpoint file:  "/rc_scratch/jasm3285/Gau-13530.chk"
 -------------------
 Title Card Required
 -------------------
 Charge =  0 Multiplicity = 1

 SCF Done:  E(RB3LYP) =  -79.8562628984     A.U. after    1 cycles

  Exact polarizability:  24.842   0.406  25.129   0.703   0.994  26.277
 Approx polarizability:  32.214  -0.079  32.159  -0.136  -0.192  31.937

                      1                      2                      3
                      A                      A                      A
 Frequencies --    307.7063               827.9586               827.9853
 Red. masses --      1.0078                 1.0583                 1.0583
 Frc consts  --      0.0562                 0.4274                 0.4275
 IR Inten    --      0.0000                 4.4195                 4.4198

                      4                      5                      6
                      A                      A                      A
 Frequencies --    997.4836              1219.4452              1219.4550
 Red. masses --      3.3316                 1.4691                 1.4691
 Frc consts  --      1.9531                 1.2871                 1.2871
 IR Inten    --      0.0000                 0.0000                 0.0000

                      7                      8                      9
                      A                      A                      A
 Frequencies --   1410.0602              1425.7722              1505.0881
 Red. masses --      1.1984                 1.2461                 1.0179
 Frc consts  --      1.4038                 1.4925                 1.3586
 IR Inten    --      1.6139                 0.0000                 0.0000

                     10                     11                     12
                      A                      A                      A
 Frequencies --   1505.1085              1507.7381              1507.7485
 Red. masses --      1.0179                 1.0617                 1.0617
 Frc consts  --      1.3586                 1.4221                 1.4221
 IR Inten    --      0.0000                10.2675                10.2679

                     13                     14                     15
                      A                      A                      A
 Frequencies --   3025.1333              3025.7965              3071.2857
 Red. masses --      1.0361                 1.0340                 1.1013
 Frc consts  --      5.5866                 5.5778                 6.1205
 IR Inten    --      0.0000                63.2566                 0.0000

                     16                     17                     18
                      A                      A                      A
 Frequencies --   3071.2965              3096.5947              3096.6036
 Red. masses --      1.1013                 1.1025                 1.1025
 Frc consts  --      6.1206                 6.2287                 6.2288
 IR Inten    --      0.0000                76.4037                76.4018

 - Thermochemistry -
 -------------------
 Temperature   298.150 Kelvin.  Pressure   1.00000 Atm.
 Atom     1 has atomic number  6 and mass  12.00000

 Molecular mass:    30.04695 amu.
 Principal axes and moments of inertia in atomic units:
                           1         2         3
     Eigenvalues --    22.39673  90.62150  90.62152
           X            0.33334   0.83155   0.44431
           Y            0.47140  -0.55512   0.68529
           Z            0.81650  -0.01899  -0.57704
 This molecule is an asymmetric top.
 Rotational symmetry number  1.
 Rotational temperatures (Kelvin)      3.86726     0.95578     0.95578
 Rotational constants (GHZ):          80.58056    19.91515    19.91515
 Zero-point vibrational energy     195280.0 (Joules/Mol)
                                   46.67303 (Kcal/Mol)
 Warning -- explicit consideration of   1 degrees of freedom as
           vibrations may cause significant error
 Vibrational temperatures:    442.72  1191.25  1191.29  1435.16  1754.51
          (Kelvin)           1754.52  2028.76  2051.37  2165.49  2165.52
                             2169.30  2169.31  4352.49  4353.45  4418.90
                             4418.91  4455.31  4455.32

 Zero-point correction=                           0.074378 (Hartree/Particle)
 Thermal correction to Energy=                    0.077864
 Thermal correction to Enthalpy=                  0.078808
 Thermal correction to Gibbs Free Energy=         0.051261
 Sum of electronic and zero-point Energies=            -79.781885
 Sum of electronic and thermal Energies=               -79.778399
 Sum of electronic and thermal Enthalpies=             -79.777455
 Sum of electronic and thermal Free Energies=          -79.805002

                     E (Thermal)             CV                S
                      KCal/Mol        Cal/Mol-Kelvin    Cal/Mol-Kelvin
 Total                   48.860             10.090             57.978
 Electronic               0.000              0.000              0.000
 Translational            0.889              2.981             36.134
 Rotational               0.889              2.981             19.848
 Vibrational             47.083              4.129              1.996
 Vibration     1          0.698              1.659              1.375

 Optimization completed.
    -- Stationary point found.
 Normal termination of Gaussian 16 at Mon Mar 19 08:42:05 2018.

 ----------------------------------------------------------------
 #N Geom=AllCheck Guess=TCheck SCRF=Check Test CCSD(T)/6-31+G(d')
 ----------------------------------------------------------------

 Structure from the checkpoint file:  "/rc_scratch/jasm3285/Gau-13530.chk"
 -------------------
 Title Card Required
 -------------------
 Charge =  0 Multiplicity = 1

 SCF Done:  E(RHF) =  -79.2287397991     A.U. after    9 cycles
 E2 =    -0.2715674556D+00 EUMP2 =    -0.79500307254724D+02
 CCSD(T)= -0.79540892790D+02
 -79.5327369\CCSD=-79.5337653\CCSD(T)=-79.5408928\RMSD=8.698e-10\PG=CI
 Normal termination of Gaussian 16 at Mon Mar 19 08:42:12 2018.

 ----------------------------------------------------------
 #N Geom=AllCheck Guess=TCheck SCRF=Check Test MP4SDQ/CBSB4
 ----------------------------------------------------------

 Structure from the checkpoint file:  "/rc_scratch/jasm3285/Gau-13530.chk"
 -------------------
 Title Card Required
 -------------------
 Charge =  0 Multiplicity = 1

 SCF Done:  E(RHF) =  -79.2367223291     A.U. after    8 cycles
 E2 =    -0.3113002851D+00 EUMP2 =    -0.79548022614170D+02
 Normal termination of Gaussian 16 at Mon Mar 19 08:42:18 2018.

 ----------------------------------------------------------------------
 #N Geom=AllCheck Guess=TCheck SCRF=Check Test MP2/CBSB3 CBSExtrap=(NMi
 n=10,MinPop)
 ----------------------------------------------------------------------

 Structure from the checkpoint file:  "/rc_scratch/jasm3285/Gau-13530.chk"
 -------------------
 Title Card Required
 -------------------
 Charge =  0 Multiplicity = 1

                          Input orientation:
 ---------------------------------------------------------------------
 Center     Atomic      Atomic             Coordinates (Angstroms)
 Number     Number       Type             X           Y           Z
 ---------------------------------------------------------------------
      1          6           0       -0.816516    0.308041   -0.006802
      2          1           0       -0.469249   -0.728452   -0.038095
      3          1           0       -0.469215    0.799170   -0.920073
      4          1           0       -1.909487    0.289994   -0.038104
      5          6           0       -0.306365    1.029485    1.242787
      6          1           0        0.786606    1.047532    1.274089
      7          1           0       -0.653632    2.065978    1.274080
      8          1           0       -0.653666    0.538357    2.156059
 ---------------------------------------------------------------------

 SCF Done:  E(RHF) =  -79.2572389493     A.U. after    8 cycles
 E2 =    -0.3603452833D+00 EUMP2 =    -0.79617584232619D+02
 E2(CBS)=      -0.395848 CBS-Int=       0.013093 OIii=       3.610033

 Alpha  occ. eigenvalues --  -11.21123 -11.21063  -1.01604  -0.84125  -0.59522
 Alpha  occ. eigenvalues --   -0.59522  -0.50950  -0.48634  -0.48634
 Alpha virt. eigenvalues --    0.04407   0.05930   0.06662   0.06662   0.09756
 Alpha virt. eigenvalues --    0.09756   0.14308   0.14923   0.14923   0.17179
 Alpha virt. eigenvalues --    0.19579   0.20138   0.20138   0.20539   0.29274

 Mulliken charges:
               1
     1  C   -0.126819
     2  H    0.042273
     3  H    0.042273
     4  H    0.042273
     5  C   -0.126819
     6  H    0.042273
     7  H    0.042273
     8  H    0.042273
 Sum of Mulliken charges =  -0.00000

 Dipole moment (field-independent basis, Debye):
    X=             -0.0000    Y=             -0.0000    Z=              0.0000  Tot=              0.0000
 Quadrupole moment (field-independent basis, Debye-Ang):
   XX=            -15.0511   YY=            -15.1269   ZZ=            -15.4302
   XY=             -0.1072   XZ=             -0.1858   YZ=             -0.2627

 1\1\GINC-BNODE0304\Mixed\CBS-QB3\CBS-QB3\C2H6\JASM3285\19-Mar-2018\0\\
 # opt=(calcfc,verytight,maxcyc=400) freq cbs-qb3 nosymm geom=connectiv
 ity ccsd=maxcyc=1000 iop(7/33=1)\\Title Card Required\\0,1\C,0,-0.8165
 162034,0.3080409596,-0.0068016468\H,0,-0.4692491312,-0.7284516597,-0.0
 380947875\H,0,-0.4692150562,0.799169576,-0.9200733959\H,0,-1.909486962
 4,0.2899940338,-0.0381038452\C,0,-0.306365029,1.0294853847,1.242787190
 7\H,0,0.78660573,1.0475323064,1.2740893918\H,0,-0.6536321019,2.0659780
 036,1.2740803345\H,0,-0.653666176,0.5383567656,2.1560589384\\Version=E

 Normal termination of Gaussian 16 at Mon Mar 19 08:42:26 2018.
