 Gaussian 16, Revision A.03,
 Gaussian 16:  ES64L-G16RevA.03 25-Dec-2016

 ----------------------------------------------------------------------
 # opt=(tight,modredundant,noeigentest,maxcyc=400) cbs-qb3 nosymm geom=
 connectivity ccsd=maxcyc=1000
 ----------------------------------------------------------------------

 -------------------
 Title Card Required
 -------------------
 Symbolic Z-matrix:
 Charge =  0 Multiplicity = 1

 SCF Done:  E(RB3LYP) =  -79.8562628984     A.U. after    9 cycles
 Optimization completed.
    -- Stationary point found.
 SCF Done:  E(RB3LYP) =  -79.8533220995     A.U. after    9 cycles
 SCF Done:  E(RB3LYP) =  -79.8554365512     A.U. after    9 cycles
 SCF Done:  E(RB3LYP) =  -79.8556766205     A.U. after    8 cycles
 SCF Done:  E(RB3LYP) =  -79.8556781112     A.U. after    6 cycles
 SCF Done:  E(RB3LYP) =  -79.8556781484     A.U. after    5 cycles
 SCF Done:  E(RB3LYP) =  -79.8556781515     A.U. after    4 cycles
 SCF Done:  E(RB3LYP) =  -79.8556781552     A.U. after    4 cycles
 SCF Done:  E(RB3LYP) =  -79.8556781552     A.U. after    4 cycles
 Optimization completed.
 SCF Done:  E(RB3LYP) =  -79.8516336253     A.U. after    8 cycles
 SCF Done:  E(RB3LYP) =  -79.8556785806     A.U. after    3 cycles
 SCF Done:  E(RB3LYP) =  -79.8538792532     A.U. after    8 cycles
 SCF Done:  E(RB3LYP) =  -79.8561579265     A.U. after    9 cycles
 SCF Done:  E(RB3LYP) =  -79.8562624496     A.U. after    8 cycles
 SCF Done:  E(RB3LYP) =  -79.8562628346     A.U. after    6 cycles
 SCF Done:  E(RB3LYP) =  -79.8562628396     A.U. after    4 cycles
    -- Stationary point found.
 Normal termination of Gaussian 16 at Fri Mar 16 06:48:40 2018.

 ---------------------------------------------------------
 #N Geom=AllCheck Guess=TCheck SCRF=Check B3LYP/CBSB7 Freq
 ---------------------------------------------------------

 Structure from the checkpoint file:  "/rc_scratch/jasm3285/Gau-43310.chk"
 -------------------
 Title Card Required
 -------------------
 Charge =  0 Multiplicity = 1

 SCF Done:  E(RB3LYP) =  -79.8562628396     A.U. after    1 cycles

  Exact polarizability:  24.880   0.428  25.120   0.742   0.978  26.249
 Approx polarizability:  32.207  -0.083  32.161  -0.144  -0.189  31.942

                      1                      2                      3
                      A                      A                      A
 Frequencies --    307.5661               827.8951               827.9819
 Red. masses --      1.0078                 1.0583                 1.0583
 Frc consts  --      0.0562                 0.4274                 0.4275
 IR Inten    --      0.0000                 4.4191                 4.4191

                      4                      5                      6
                      A                      A                      A
 Frequencies --    997.4828              1219.4136              1219.4582
 Red. masses --      3.3316                 1.4691                 1.4691
 Frc consts  --      1.9531                 1.2870                 1.2872
 IR Inten    --      0.0000                 0.0000                 0.0000

                      7                      8                      9
                      A                      A                      A
 Frequencies --   1410.0643              1425.7666              1505.0755
 Red. masses --      1.1984                 1.2461                 1.0179
 Frc consts  --      1.4039                 1.4924                 1.3585
 IR Inten    --      1.6138                 0.0000                 0.0000

                     10                     11                     12
                      A                      A                      A
 Frequencies --   1505.0962              1507.7313              1507.7545
 Red. masses --      1.0179                 1.0617                 1.0617
 Frc consts  --      1.3586                 1.4220                 1.4221
 IR Inten    --      0.0000                10.2672                10.2673

                     13                     14                     15
                      A                      A                      A
 Frequencies --   3025.1217              3025.7901              3071.2555
 Red. masses --      1.0361                 1.0340                 1.1013
 Frc consts  --      5.5866                 5.5778                 6.1204
 IR Inten    --      0.0000                63.2585                 0.0000

                     16                     17                     18
                      A                      A                      A
 Frequencies --   3071.3024              3096.5643              3096.6075
 Red. masses --      1.1013                 1.1025                 1.1025
 Frc consts  --      6.1206                 6.2286                 6.2288
 IR Inten    --      0.0000                76.4013                76.4008

 - Thermochemistry -
 -------------------
 Temperature   298.150 Kelvin.  Pressure   1.00000 Atm.
 Atom     1 has atomic number  6 and mass  12.00000

 Molecular mass:    30.04695 amu.
 Principal axes and moments of inertia in atomic units:
                           1         2         3
     Eigenvalues --    22.39673  90.62167  90.62175
           X            0.35463   0.09339   0.93033
           Y            0.46753   0.84397  -0.26294
           Z            0.80972  -0.52820  -0.25564
 This molecule is an asymmetric top.
 Rotational symmetry number  1.
 Rotational temperatures (Kelvin)      3.86726     0.95577     0.95577
 Rotational constants (GHZ):          80.58057    19.91512    19.91510
 Zero-point vibrational energy     195278.0 (Joules/Mol)
                                   46.67256 (Kcal/Mol)
 Warning -- explicit consideration of   1 degrees of freedom as
           vibrations may cause significant error
 Vibrational temperatures:    442.52  1191.16  1191.28  1435.16  1754.46
          (Kelvin)           1754.53  2028.77  2051.36  2165.47  2165.50
                             2169.29  2169.32  4352.48  4353.44  4418.85
                             4418.92  4455.27  4455.33

 Zero-point correction=                           0.074377 (Hartree/Particle)
 Thermal correction to Energy=                    0.077863
 Thermal correction to Enthalpy=                  0.078808
 Thermal correction to Gibbs Free Energy=         0.051260
 Sum of electronic and zero-point Energies=            -79.781885
 Sum of electronic and thermal Energies=               -79.778399
 Sum of electronic and thermal Enthalpies=             -79.777455
 Sum of electronic and thermal Free Energies=          -79.805003

                     E (Thermal)             CV                S
                      KCal/Mol        Cal/Mol-Kelvin    Cal/Mol-Kelvin
 Total                   48.860             10.091             57.978
 Electronic               0.000              0.000              0.000
 Translational            0.889              2.981             36.134
 Rotational               0.889              2.981             19.848
 Vibrational             47.083              4.129              1.997
 Vibration     1          0.697              1.659              1.375

 Optimization completed.
    -- Stationary point found.
 Normal termination of Gaussian 16 at Fri Mar 16 07:07:47 2018.

 -----------------------------------------------------------
 #N Geom=AllCheck Guess=TCheck SCRF=Check CCSD(T)/6-31+G(d')
 -----------------------------------------------------------

 Structure from the checkpoint file:  "/rc_scratch/jasm3285/Gau-43310.chk"
 -------------------
 Title Card Required
 -------------------
 Charge =  0 Multiplicity = 1

 SCF Done:  E(RHF) =  -79.2287398027     A.U. after    9 cycles
 E2 =    -0.2715674520D+00 EUMP2 =    -0.79500307254657D+02
 CCSD(T)= -0.79540892798D+02
 5327369\CCSD=-79.5337653\CCSD(T)=-79.5408928\RMSD=8.685e-10\PG=C01 [X(
 Normal termination of Gaussian 16 at Fri Mar 16 10:03:36 2018.

 -----------------------------------------------------
 #N Geom=AllCheck Guess=TCheck SCRF=Check MP4SDQ/CBSB4
 -----------------------------------------------------

 Structure from the checkpoint file:  "/rc_scratch/jasm3285/Gau-43310.chk"
 -------------------
 Title Card Required
 -------------------
 Charge =  0 Multiplicity = 1

 SCF Done:  E(RHF) =  -79.2367223292     A.U. after    8 cycles
 E2 =    -0.3113002789D+00 EUMP2 =    -0.79548022608096D+02
 Normal termination of Gaussian 16 at Fri Mar 16 10:17:11 2018.

 ----------------------------------------------------------------------
 #N Geom=AllCheck Guess=TCheck SCRF=Check MP2/CBSB3 CBSExtrap=(NMin=10,
 MinPop)
 ----------------------------------------------------------------------

 Structure from the checkpoint file:  "/rc_scratch/jasm3285/Gau-43310.chk"
 -------------------
 Title Card Required
 -------------------
 Charge =  0 Multiplicity = 1

                          Input orientation:
 ---------------------------------------------------------------------
 Center     Atomic      Atomic             Coordinates (Angstroms)
 Number     Number       Type             X           Y           Z
 ---------------------------------------------------------------------
      1          6           0       -0.832808    0.311000   -0.001619
      2          1           0       -1.450170    0.978857   -0.608843
      3          1           0       -1.450241   -0.548738    0.273186
      4          1           0       -0.021879   -0.055890   -0.636975
      5          6           0       -0.290065    1.026519    1.237606
      6          1           0       -1.101014    1.393404    1.872939
      7          1           0        0.327301    0.358689    1.844857
      8          1           0        0.327352    1.886264    0.962789
 ---------------------------------------------------------------------

 SCF Done:  E(RHF) =  -79.2572389445     A.U. after    8 cycles
 E2 =    -0.3603452760D+00 EUMP2 =    -0.79617584220457D+02
 E2(CBS)=      -0.395850 CBS-Int=       0.013093 OIii=       3.610033

 Alpha  occ. eigenvalues --  -11.21123 -11.21063  -1.01604  -0.84125  -0.59522
 Alpha  occ. eigenvalues --   -0.59522  -0.50950  -0.48634  -0.48634
 Alpha virt. eigenvalues --    0.04407   0.05930   0.06662   0.06662   0.09756
 Alpha virt. eigenvalues --    0.09756   0.14308   0.14923   0.14923   0.17179
 Alpha virt. eigenvalues --    0.19579   0.20138   0.20138   0.20539   0.29274

 Mulliken charges:
               1
     1  C   -0.126819
     2  H    0.042274
     3  H    0.042273
     4  H    0.042272
     5  C   -0.126819
     6  H    0.042273
     7  H    0.042272
     8  H    0.042273
 Sum of Mulliken charges =  -0.00000

 Dipole moment (field-independent basis, Debye):
    X=             -0.0000    Y=              0.0000    Z=             -0.0000  Tot=              0.0000
 Quadrupole moment (field-independent basis, Debye-Ang):
   XX=            -15.0611   YY=            -15.1244   ZZ=            -15.4227
   XY=             -0.1132   XZ=             -0.1960   YZ=             -0.2584

 1\1\GINC-BNODE0304\Mixed\CBS-QB3\CBS-QB3\C2H6\JASM3285\16-Mar-2018\0\\
 # opt=(tight,modredundant,noeigentest,maxcyc=400) cbs-qb3 nosymm geom=
 connectivity ccsd=maxcyc=1000\\Title Card Required\\0,1\C,0,-0.8328080
 97,0.3109999521,-0.0016188204\H,0,-1.4501701109,0.9788566967,-0.608843
 455\H,0,-1.4502405439,-0.5487377736,0.273186352\H,0,-0.0218791664,-0.0
 558895075,-0.6369748827\C,0,-0.2900648307,1.0265187108,1.2376061813\H,
 0,-1.1010137071,1.3934040364,1.8729392863\H,0,0.3273008807,0.358689081
 5,1.8448569189\H,0,0.3273515754,1.8862638038,0.9627894195\\Version=ES6

 Normal termination of Gaussian 16 at Fri Mar 16 10:41:58 2018.
