 Gaussian 16, Revision A.03,
 Gaussian 16:  ES64L-G16RevA.03 25-Dec-2016

 ----------------------------------------------------------------------
 # opt=(calcfc,tight,ts,noeigentest) freq cbs-qb3 scf=qc geom=connectiv
 ity ccsd=maxcyc=1000 optcyc=100
 ----------------------------------------------------------------------

 -------------------
 Title Card Required
 -------------------
 Symbolic Z-matrix:
 Charge =  0 Multiplicity = 2

 SCF Done:  E(UB3LYP) =  -268.955745381     a.u. after    9 cycles
 SCF Done:  E(UB3LYP) =  -268.955745385     a.u. after    2 cycles
 Optimization completed.
    -- Stationary point found.
 Normal termination of Gaussian 16 at Thu Feb  8 13:37:00 2018.

 ---------------------------------------------------------
 #N Geom=AllCheck Guess=TCheck SCRF=Check B3LYP/CBSB7 Freq
 ---------------------------------------------------------

 Structure from the checkpoint file:  "/gpfs/summit/scratch/jasm3285/Gau-58468.chk"
 -------------------
 Title Card Required
 -------------------
 Charge =  0 Multiplicity = 2

 SCF Done:  E(UB3LYP) =  -268.955745385     a.u. after    1 cycles

  Exact polarizability:  72.460 -14.190  53.884  -4.742   1.831  37.889
 Approx polarizability: 124.379 -39.362  97.708 -12.687   4.268  54.484

 ******    1 imaginary frequencies (negative Signs) ******

                      1                      2                      3
                      A                      A                      A
 Frequencies --  -2104.7581               103.8384               235.1677
 Red. masses --      1.0524                 2.9649                 1.0662
 Frc consts  --      2.7469                 0.0188                 0.0347
 IR Inten    --   1460.0696                 2.0666                 0.2959

                      4                      5                      6
                      A                      A                      A
 Frequencies --    318.1923               455.0300               608.9760
 Red. masses --      2.4732                 2.3479                 3.4517
 Frc consts  --      0.1475                 0.2864                 0.7542
 IR Inten    --      0.5428                 8.5189                 4.7203

                      7                      8                      9
                      A                      A                      A
 Frequencies --    698.4060               748.7329               882.5131
 Red. masses --      7.7976                 4.4679                 1.8080
 Frc consts  --      2.2409                 1.4757                 0.8296
 IR Inten    --      1.8284                 4.9978                 2.3523

                     10                     11                     12
                      A                      A                      A
 Frequencies --    916.9470               998.6145              1048.8778
 Red. masses --      1.8367                 1.6082                 1.2191
 Frc consts  --      0.9099                 0.9449                 0.7902
 IR Inten    --     18.2559                 0.6319                28.8563

                     13                     14                     15
                      A                      A                      A
 Frequencies --   1108.2510              1134.6521              1173.8945
 Red. masses --      1.6471                 1.6997                 2.4492
 Frc consts  --      1.1919                 1.2893                 1.9886
 IR Inten    --      6.2012                19.9228                27.8785

                     16                     17                     18
                      A                      A                      A
 Frequencies --   1186.4058              1212.2872              1256.1317
 Red. masses --      1.6324                 1.2933                 1.5763
 Frc consts  --      1.3538                 1.1198                 1.4654
 IR Inten    --     46.6430                34.8129               105.4604

                     19                     20                     21
                      A                      A                      A
 Frequencies --   1291.4503              1404.9184              1444.2611
 Red. masses --      1.4794                 1.2448                 1.0766
 Frc consts  --      1.4537                 1.4476                 1.3231
 IR Inten    --     18.2596                 5.4163                 6.6430

                     22                     23                     24
                      A                      A                      A
 Frequencies --   1480.4373              1499.2911              1991.2650
 Red. masses --      1.0454                 1.0461                 1.0283
 Frc consts  --      1.3499                 1.3855                 2.4023
 IR Inten    --      6.8938                 8.0869                91.8006

                     25                     26                     27
                      A                      A                      A
 Frequencies --   2868.3379              2900.4756              3018.6044
 Red. masses --      1.0752                 1.0691                 1.0872
 Frc consts  --      5.2120                 5.2989                 5.8370
 IR Inten    --     13.7513                 9.5032                37.1914

                     28                     29                     30
                      A                      A                      A
 Frequencies --   3030.1487              3098.0503              3112.1327
 Red. masses --      1.0359                 1.1011                 1.1025
 Frc consts  --      5.6040                 6.2267                 6.2911
 IR Inten    --     20.0234                18.6429                13.4137

 - Thermochemistry -
 -------------------
 Temperature   298.150 Kelvin.  Pressure   1.00000 Atm.
 Atom     1 has atomic number  6 and mass  12.00000

 Molecular mass:    75.04460 amu.
 Principal axes and moments of inertia in atomic units:
                           1         2         3
     Eigenvalues --   189.10878 452.86907 586.45766
           X            0.99978   0.01951   0.00758
           Y           -0.01955   0.99979   0.00532
           Z           -0.00747  -0.00547   0.99996
 This molecule is an asymmetric top.
 Rotational symmetry number  1.
 Rotational temperatures (Kelvin)      0.45801     0.19126     0.14769
 Rotational constants (GHZ):           9.54340     3.98513     3.07736
    1 imaginary frequencies ignored.
 Zero-point vibrational energy     246588.0 (Joules/Mol)
                                   58.93594 (Kcal/Mol)
 Warning -- explicit consideration of   5 degrees of freedom as
           vibrations may cause significant error
 Vibrational temperatures:    149.40   338.35   457.81   654.69   876.18
          (Kelvin)           1004.85  1077.26  1269.74  1319.28  1436.78
                             1509.10  1594.53  1632.51  1688.97  1706.97
                             1744.21  1807.29  1858.11  2021.36  2077.97
                             2130.02  2157.15  2864.99  4126.90  4173.14
                             4343.10  4359.71  4457.40  4477.66

 Zero-point correction=                           0.093920 (Hartree/Particle)
 Thermal correction to Energy=                    0.099332
 Thermal correction to Enthalpy=                  0.100276
 Thermal correction to Gibbs Free Energy=         0.064740
 Sum of electronic and zero-point Energies=           -268.861825
 Sum of electronic and thermal Energies=              -268.856414
 Sum of electronic and thermal Enthalpies=            -268.855470
 Sum of electronic and thermal Free Energies=         -268.891005

                     E (Thermal)             CV                S
                      KCal/Mol        Cal/Mol-Kelvin    Cal/Mol-Kelvin
 Total                   62.332             18.820             74.791
 Electronic               0.000              0.000              1.377
 Translational            0.889              2.981             38.862
 Rotational               0.889              2.981             25.421
 Vibrational             60.554             12.858              9.130
 Vibration     1          0.605              1.946              3.381
 Vibration     2          0.655              1.787              1.839
 Vibration     3          0.705              1.639              1.319
 Vibration     4          0.813              1.350              0.781
 Vibration     5          0.968              1.013              0.434

 Optimization completed.
    -- Stationary point found.
 Normal termination of Gaussian 16 at Thu Feb  8 13:43:44 2018.

 -----------------------------------------------------------
 #N Geom=AllCheck Guess=TCheck SCRF=Check CCSD(T)/6-31+G(d')
 -----------------------------------------------------------

 Structure from the checkpoint file:  "/gpfs/summit/scratch/jasm3285/Gau-58468.chk"
 -------------------
 Title Card Required
 -------------------
 Charge =  0 Multiplicity = 2

 SCF Done:  E(UHF) =  -267.273918678     a.u. after   29 cycles
 E2 =    -0.7515684084D+00 EUMP2 =    -0.26802548708607D+03
 CCSD(T)= -0.26811179836D+03
 32\CCSD(T)=-268.1117984\S2=0.761721\S2-1=0.753121\S2A=0.750106\RMSD=8.
 Normal termination of Gaussian 16 at Thu Feb  8 13:55:42 2018.

 -----------------------------------------------------
 #N Geom=AllCheck Guess=TCheck SCRF=Check MP4SDQ/CBSB4
 -----------------------------------------------------

 Structure from the checkpoint file:  "/gpfs/summit/scratch/jasm3285/Gau-58468.chk"
 -------------------
 Title Card Required
 -------------------
 Charge =  0 Multiplicity = 2

 SCF Done:  E(UHF) =  -267.295172082     a.u. after    7 cycles
 E2 =    -0.7991357497D+00 EUMP2 =    -0.26809430783139D+03
 Normal termination of Gaussian 16 at Thu Feb  8 13:56:18 2018.

 ----------------------------------------------------------------------
 #N Geom=AllCheck Guess=TCheck SCRF=Check MP2/CBSB3 CBSExtrap=(NMin=10,
 MinPop)
 ----------------------------------------------------------------------

 Structure from the checkpoint file:  "/gpfs/summit/scratch/jasm3285/Gau-58468.chk"
 -------------------
 Title Card Required
 -------------------
 Charge =  0 Multiplicity = 2

                         Standard orientation:
 ---------------------------------------------------------------------
 Center     Atomic      Atomic             Coordinates (Angstroms)
 Number     Number       Type             X           Y           Z
 ---------------------------------------------------------------------
      1          6           0       -1.837405   -0.340950   -0.177093
      2          1           0       -2.100922   -1.350875    0.151362
      3          1           0       -2.612629    0.347114    0.164926
      4          1           0       -1.819218   -0.320438   -1.269365
      5          6           0       -0.479565    0.066224    0.375862
      6          1           0       -0.515459    0.064532    1.483909
      7          6           0        0.747685   -0.877113    0.023405
      8          1           0        0.954275   -1.669997    0.753340
      9          1           0        0.490523   -1.364057   -0.936255
     10          8           0       -0.061025    1.299220   -0.058113
     11          8           0        1.802088   -0.017882   -0.128793
     12          1           0        1.090641    0.954054   -0.185719
 ---------------------------------------------------------------------

 SCF Done:  E(UHF) =  -267.375598777     a.u. after   38 cycles
 E2 =    -0.9570723098D+00 EUMP2 =    -0.26833267108729D+03
 E2(CBS)=      -1.054446 CBS-Int=       0.030788 OIii=       8.227306

 The electronic state is 2-A.
 Alpha  occ. eigenvalues --  -20.70568 -20.49780 -11.31297 -11.26712 -11.24983
 Alpha  occ. eigenvalues --   -1.51595  -1.30075  -1.06021  -0.91962  -0.82865
 Alpha  occ. eigenvalues --   -0.77984  -0.77546  -0.68446  -0.62198  -0.58914
 Alpha  occ. eigenvalues --   -0.57838  -0.56314  -0.52241  -0.50524  -0.43602
 Alpha  occ. eigenvalues --   -0.39395
 Alpha virt. eigenvalues --    0.03490   0.05148   0.05696   0.06722   0.08287
 Alpha virt. eigenvalues --    0.09036   0.09381   0.12278   0.13028   0.15526
 Alpha virt. eigenvalues --    0.16306   0.16590   0.17505   0.17749   0.18168

  Beta  occ. eigenvalues --  -20.66499 -20.49747 -11.31584 -11.26649 -11.24864
  Beta  occ. eigenvalues --   -1.40077  -1.28406  -1.04368  -0.91322  -0.80515
  Beta  occ. eigenvalues --   -0.75562  -0.68690  -0.63373  -0.58724  -0.57669
  Beta  occ. eigenvalues --   -0.55735  -0.53163  -0.48823  -0.43471  -0.39187
  Beta virt. eigenvalues --    0.01467   0.04007   0.05204   0.05792   0.06768
  Beta virt. eigenvalues --    0.08332   0.09192   0.09419   0.12355   0.13561
  Beta virt. eigenvalues --    0.15632   0.16319   0.16637   0.17539   0.17807

 Mulliken charges and spin densities:
               1          2
     1  C   -0.263461   0.014200
     2  H    0.072437  -0.000402
     3  H    0.081184  -0.003587
     4  H    0.078951  -0.002932
     5  C    0.142035  -0.095878
     6  H    0.102281   0.103183
     7  C   -0.034640   0.013765
     8  H    0.029107  -0.006445
     9  H    0.055791   0.007819
    10  O   -0.026961   0.984178
    11  O   -0.568601   0.002565
    12  H    0.331877  -0.016465
 Sum of Mulliken charges =   0.00000   1.00000

 Dipole moment (field-independent basis, Debye):
    X=             -4.2365    Y=             -0.2862    Z=              0.8550  Tot=              4.3314
 Quadrupole moment (field-independent basis, Debye-Ang):
   XX=            -38.5840   YY=            -30.4826   ZZ=            -29.8420
   XY=              1.0894   XZ=              0.4052   YZ=             -0.3171

    1 imaginary frequencies ignored.
 Normal termination of Gaussian 16 at Thu Feb  8 14:04:01 2018.
